V -t * -v 1.0a5 -a 0
A -t * -n 1 -p 0 -o 0x7fffffff -c 30 -a 1
A -t * -h 1 -m 1073741823 -s 0
c -t * -i 1 -n Blue
c -t * -i 2 -n Red
n -t * -a 4 -s 4 -S UP -v circle -c Red -i Red
n -t * -a 0 -s 0 -S UP -v circle -c Red -i Red
n -t * -a 5 -s 5 -S UP -v box -c Blue -i Blue
n -t * -a 1 -s 1 -S UP -v box -c Blue -i Blue
n -t * -a 2 -s 2 -S UP -v circle -c black -i black
n -t * -a 3 -s 3 -S UP -v circle -c black -i black
l -t * -s 0 -d 2 -S UP -r 2000000 -D 0.01 -c black -o right-down
l -t * -s 1 -d 2 -S UP -r 2000000 -D 0.01 -c black -o right-up
l -t * -s 2 -d 3 -S UP -r 2000000 -D 0.01 -c black -o right
X -t * -n 6 -r 0.5Mb -D 40ms -o left
L -t * -s 6 -d 3 -o up
L -t * -s 6 -d 4 -o down
L -t * -s 6 -d 5 -o up
n -t 0 -s 0 -S DLABEL -l "TCP_Traffic" -L ""
n -t 0 -s 1 -S DLABEL -l "UDP_Traffic" -L ""
+ -t 0.3 -s 1 -d 2 -p cbr -e 1000 -c 2 -i 0 -a 2 -x {1.0 5.0 0 ------- null}
- -t 0.3 -s 1 -d 2 -p cbr -e 1000 -c 2 -i 0 -a 2 -x {1.0 5.0 0 ------- null}
h -t 0.3 -s 1 -d 2 -p cbr -e 1000 -c 2 -i 0 -a 2 -x {1.0 5.0 -1 ------- null}
r -t 0.314 -s 1 -d 2 -p cbr -e 1000 -c 2 -i 0 -a 2 -x {1.0 5.0 0 ------- null}
+ -t 0.314 -s 2 -d 3 -p cbr -e 1000 -c 2 -i 0 -a 2 -x {1.0 5.0 0 ------- null}
- -t 0.314 -s 2 -d 3 -p cbr -e 1000 -c 2 -i 0 -a 2 -x {1.0 5.0 0 ------- null}
h -t 0.314 -s 2 -d 3 -p cbr -e 1000 -c 2 -i 0 -a 2 -x {1.0 5.0 -1 ------- null}
r -t 0.328 -s 2 -d 3 -p cbr -e 1000 -c 2 -i 0 -a 2 -x {1.0 5.0 0 ------- null}
h -t 0.328 -s 3 -d 6 -p cbr -e 1000 -c 2 -i 0 -a 2 -x {1.0 5.0 0 ------- null}
+ -t 0.368 -s 3 -d 6 -p cbr -e 1000 -c 2 -i 0 -a 2 -x {1.0 5.0 0 ------- null}
- -t 0.368 -s 3 -d 6 -p cbr -e 1000 -c 2 -i 0 -a 2 -x {1.0 5.0 0 ------- null}
h -t 0.368 -s 3 -d 6 -p cbr -e 1000 -c 2 -i 0 -a 2 -x {1.0 5.0 -1 ------- null}
d -t 0.368004 -s 4 -d 6 -p cbr -e 1000 -c 2 -i 0 -a 2 -x {1.0 5.0 0 ------- null}
r -t 0.408004 -s 6 -d 5 -p cbr -e 1000 -c 2 -i 0 -a 2 -x {1.0 5.0 0 ------- null}
+ -t 0.46 -s 1 -d 2 -p cbr -e 1000 -c 2 -i 1 -a 2 -x {1.0 5.0 1 ------- null}
- -t 0.46 -s 1 -d 2 -p cbr -e 1000 -c 2 -i 1 -a 2 -x {1.0 5.0 1 ------- null}
h -t 0.46 -s 1 -d 2 -p cbr -e 1000 -c 2 -i 1 -a 2 -x {1.0 5.0 -1 ------- null}
r -t 0.474 -s 1 -d 2 -p cbr -e 1000 -c 2 -i 1 -a 2 -x {1.0 5.0 1 ------- null}
+ -t 0.474 -s 2 -d 3 -p cbr -e 1000 -c 2 -i 1 -a 2 -x {1.0 5.0 1 ------- null}
- -t 0.474 -s 2 -d 3 -p cbr -e 1000 -c 2 -i 1 -a 2 -x {1.0 5.0 1 ------- null}
h -t 0.474 -s 2 -d 3 -p cbr -e 1000 -c 2 -i 1 -a 2 -x {1.0 5.0 -1 ------- null}
r -t 0.488 -s 2 -d 3 -p cbr -e 1000 -c 2 -i 1 -a 2 -x {1.0 5.0 1 ------- null}
h -t 0.488 -s 3 -d 6 -p cbr -e 1000 -c 2 -i 1 -a 2 -x {1.0 5.0 1 ------- null}
+ -t 0.528 -s 3 -d 6 -p cbr -e 1000 -c 2 -i 1 -a 2 -x {1.0 5.0 1 ------- null}
- -t 0.528 -s 3 -d 6 -p cbr -e 1000 -c 2 -i 1 -a 2 -x {1.0 5.0 1 ------- null}
h -t 0.528 -s 3 -d 6 -p cbr -e 1000 -c 2 -i 1 -a 2 -x {1.0 5.0 -1 ------- null}
d -t 0.528004 -s 4 -d 6 -p cbr -e 1000 -c 2 -i 1 -a 2 -x {1.0 5.0 1 ------- null}
r -t 0.568004 -s 6 -d 5 -p cbr -e 1000 -c 2 -i 1 -a 2 -x {1.0 5.0 1 ------- null}
+ -t 0.62 -s 1 -d 2 -p cbr -e 1000 -c 2 -i 2 -a 2 -x {1.0 5.0 2 ------- null}
- -t 0.62 -s 1 -d 2 -p cbr -e 1000 -c 2 -i 2 -a 2 -x {1.0 5.0 2 ------- null}
h -t 0.62 -s 1 -d 2 -p cbr -e 1000 -c 2 -i 2 -a 2 -x {1.0 5.0 -1 ------- null}
r -t 0.634 -s 1 -d 2 -p cbr -e 1000 -c 2 -i 2 -a 2 -x {1.0 5.0 2 ------- null}
+ -t 0.634 -s 2 -d 3 -p cbr -e 1000 -c 2 -i 2 -a 2 -x {1.0 5.0 2 ------- null}
- -t 0.634 -s 2 -d 3 -p cbr -e 1000 -c 2 -i 2 -a 2 -x {1.0 5.0 2 ------- null}
h -t 0.634 -s 2 -d 3 -p cbr -e 1000 -c 2 -i 2 -a 2 -x {1.0 5.0 -1 ------- null}
r -t 0.648 -s 2 -d 3 -p cbr -e 1000 -c 2 -i 2 -a 2 -x {1.0 5.0 2 ------- null}
h -t 0.648 -s 3 -d 6 -p cbr -e 1000 -c 2 -i 2 -a 2 -x {1.0 5.0 2 ------- null}
+ -t 0.688 -s 3 -d 6 -p cbr -e 1000 -c 2 -i 2 -a 2 -x {1.0 5.0 2 ------- null}
- -t 0.688 -s 3 -d 6 -p cbr -e 1000 -c 2 -i 2 -a 2 -x {1.0 5.0 2 ------- null}
h -t 0.688 -s 3 -d 6 -p cbr -e 1000 -c 2 -i 2 -a 2 -x {1.0 5.0 -1 ------- null}
d -t 0.688004 -s 4 -d 6 -p cbr -e 1000 -c 2 -i 2 -a 2 -x {1.0 5.0 2 ------- null}
r -t 0.728004 -s 6 -d 5 -p cbr -e 1000 -c 2 -i 2 -a 2 -x {1.0 5.0 2 ------- null}
+ -t 0.78 -s 1 -d 2 -p cbr -e 1000 -c 2 -i 3 -a 2 -x {1.0 5.0 3 ------- null}
- -t 0.78 -s 1 -d 2 -p cbr -e 1000 -c 2 -i 3 -a 2 -x {1.0 5.0 3 ------- null}
h -t 0.78 -s 1 -d 2 -p cbr -e 1000 -c 2 -i 3 -a 2 -x {1.0 5.0 -1 ------- null}
r -t 0.794 -s 1 -d 2 -p cbr -e 1000 -c 2 -i 3 -a 2 -x {1.0 5.0 3 ------- null}
+ -t 0.794 -s 2 -d 3 -p cbr -e 1000 -c 2 -i 3 -a 2 -x {1.0 5.0 3 ------- null}
- -t 0.794 -s 2 -d 3 -p cbr -e 1000 -c 2 -i 3 -a 2 -x {1.0 5.0 3 ------- null}
h -t 0.794 -s 2 -d 3 -p cbr -e 1000 -c 2 -i 3 -a 2 -x {1.0 5.0 -1 ------- null}
+ -t 0.8 -s 0 -d 2 -p tcp -e 40 -c 1 -i 4 -a 1 -x {0.0 4.0 0 ------- null}
- -t 0.8 -s 0 -d 2 -p tcp -e 40 -c 1 -i 4 -a 1 -x {0.0 4.0 0 ------- null}
h -t 0.8 -s 0 -d 2 -p tcp -e 40 -c 1 -i 4 -a 1 -x {0.0 4.0 -1 ------- null}
r -t 0.808 -s 2 -d 3 -p cbr -e 1000 -c 2 -i 3 -a 2 -x {1.0 5.0 3 ------- null}
h -t 0.808 -s 3 -d 6 -p cbr -e 1000 -c 2 -i 3 -a 2 -x {1.0 5.0 3 ------- null}
r -t 0.81016 -s 0 -d 2 -p tcp -e 40 -c 1 -i 4 -a 1 -x {0.0 4.0 0 ------- null}
+ -t 0.81016 -s 2 -d 3 -p tcp -e 40 -c 1 -i 4 -a 1 -x {0.0 4.0 0 ------- null}
- -t 0.81016 -s 2 -d 3 -p tcp -e 40 -c 1 -i 4 -a 1 -x {0.0 4.0 0 ------- null}
h -t 0.81016 -s 2 -d 3 -p tcp -e 40 -c 1 -i 4 -a 1 -x {0.0 4.0 -1 ------- null}
r -t 0.82032 -s 2 -d 3 -p tcp -e 40 -c 1 -i 4 -a 1 -x {0.0 4.0 0 ------- null}
h -t 0.82032 -s 3 -d 6 -p tcp -e 40 -c 1 -i 4 -a 1 -x {0.0 4.0 0 ------- null}
+ -t 0.848 -s 3 -d 6 -p cbr -e 1000 -c 2 -i 3 -a 2 -x {1.0 5.0 3 ------- null}
- -t 0.848 -s 3 -d 6 -p cbr -e 1000 -c 2 -i 3 -a 2 -x {1.0 5.0 3 ------- null}
h -t 0.848 -s 3 -d 6 -p cbr -e 1000 -c 2 -i 3 -a 2 -x {1.0 5.0 -1 ------- null}
d -t 0.848004 -s 4 -d 6 -p cbr -e 1000 -c 2 -i 3 -a 2 -x {1.0 5.0 3 ------- null}
+ -t 0.86032 -s 3 -d 6 -p tcp -e 40 -c 1 -i 4 -a 1 -x {0.0 4.0 0 ------- null}
- -t 0.86032 -s 3 -d 6 -p tcp -e 40 -c 1 -i 4 -a 1 -x {0.0 4.0 0 ------- null}
h -t 0.86032 -s 3 -d 6 -p tcp -e 40 -c 1 -i 4 -a 1 -x {0.0 4.0 -1 ------- null}
d -t 0.860324 -s 5 -d 6 -p tcp -e 40 -c 1 -i 4 -a 1 -x {0.0 4.0 0 ------- null}
r -t 0.888004 -s 6 -d 5 -p cbr -e 1000 -c 2 -i 3 -a 2 -x {1.0 5.0 3 ------- null}
r -t 0.900324 -s 6 -d 4 -p tcp -e 40 -c 1 -i 4 -a 1 -x {0.0 4.0 0 ------- null}
h -t 0.900324 -s 4 -d 6 -p ack -e 40 -c 1 -i 5 -a 1 -x {4.0 0.0 0 ------- null}
+ -t 0.94 -s 1 -d 2 -p cbr -e 1000 -c 2 -i 6 -a 2 -x {1.0 5.0 4 ------- null}
- -t 0.94 -s 1 -d 2 -p cbr -e 1000 -c 2 -i 6 -a 2 -x {1.0 5.0 4 ------- null}
h -t 0.94 -s 1 -d 2 -p cbr -e 1000 -c 2 -i 6 -a 2 -x {1.0 5.0 -1 ------- null}
+ -t 0.940324 -s 4 -d 6 -p ack -e 40 -c 1 -i 5 -a 1 -x {4.0 0.0 0 ------- null}
- -t 0.940324 -s 4 -d 6 -p ack -e 40 -c 1 -i 5 -a 1 -x {4.0 0.0 0 ------- null}
h -t 0.940324 -s 4 -d 6 -p ack -e 40 -c 1 -i 5 -a 1 -x {4.0 0.0 -1 ------- null}
d -t 0.940328 -s 5 -d 6 -p ack -e 40 -c 1 -i 5 -a 1 -x {4.0 0.0 0 ------- null}
r -t 0.954 -s 1 -d 2 -p cbr -e 1000 -c 2 -i 6 -a 2 -x {1.0 5.0 4 ------- null}
+ -t 0.954 -s 2 -d 3 -p cbr -e 1000 -c 2 -i 6 -a 2 -x {1.0 5.0 4 ------- null}
- -t 0.954 -s 2 -d 3 -p cbr -e 1000 -c 2 -i 6 -a 2 -x {1.0 5.0 4 ------- null}
h -t 0.954 -s 2 -d 3 -p cbr -e 1000 -c 2 -i 6 -a 2 -x {1.0 5.0 -1 ------- null}
r -t 0.968 -s 2 -d 3 -p cbr -e 1000 -c 2 -i 6 -a 2 -x {1.0 5.0 4 ------- null}
h -t 0.968 -s 3 -d 6 -p cbr -e 1000 -c 2 -i 6 -a 2 -x {1.0 5.0 4 ------- null}
r -t 0.980328 -s 6 -d 3 -p ack -e 40 -c 1 -i 5 -a 1 -x {4.0 0.0 0 ------- null}
+ -t 0.980328 -s 3 -d 2 -p ack -e 40 -c 1 -i 5 -a 1 -x {4.0 0.0 0 ------- null}
- -t 0.980328 -s 3 -d 2 -p ack -e 40 -c 1 -i 5 -a 1 -x {4.0 0.0 0 ------- null}
h -t 0.980328 -s 3 -d 2 -p ack -e 40 -c 1 -i 5 -a 1 -x {4.0 0.0 -1 ------- null}
r -t 0.990488 -s 3 -d 2 -p ack -e 40 -c 1 -i 5 -a 1 -x {4.0 0.0 0 ------- null}
+ -t 0.990488 -s 2 -d 0 -p ack -e 40 -c 1 -i 5 -a 1 -x {4.0 0.0 0 ------- null}
- -t 0.990488 -s 2 -d 0 -p ack -e 40 -c 1 -i 5 -a 1 -x {4.0 0.0 0 ------- null}
h -t 0.990488 -s 2 -d 0 -p ack -e 40 -c 1 -i 5 -a 1 -x {4.0 0.0 -1 ------- null}
r -t 1.000648 -s 2 -d 0 -p ack -e 40 -c 1 -i 5 -a 1 -x {4.0 0.0 0 ------- null}
+ -t 1.000648 -s 0 -d 2 -p tcp -e 1040 -c 1 -i 7 -a 1 -x {0.0 4.0 1 ------- null}
- -t 1.000648 -s 0 -d 2 -p tcp -e 1040 -c 1 -i 7 -a 1 -x {0.0 4.0 1 ------- null}
h -t 1.000648 -s 0 -d 2 -p tcp -e 1040 -c 1 -i 7 -a 1 -x {0.0 4.0 -1 ------- null}
+ -t 1.000648 -s 0 -d 2 -p tcp -e 1040 -c 1 -i 8 -a 1 -x {0.0 4.0 2 ------- null}
- -t 1.004808 -s 0 -d 2 -p tcp -e 1040 -c 1 -i 8 -a 1 -x {0.0 4.0 2 ------- null}
h -t 1.004808 -s 0 -d 2 -p tcp -e 1040 -c 1 -i 8 -a 1 -x {0.0 4.0 -1 ------- null}
+ -t 1.008 -s 3 -d 6 -p cbr -e 1000 -c 2 -i 6 -a 2 -x {1.0 5.0 4 ------- null}
- -t 1.008 -s 3 -d 6 -p cbr -e 1000 -c 2 -i 6 -a 2 -x {1.0 5.0 4 ------- null}
h -t 1.008 -s 3 -d 6 -p cbr -e 1000 -c 2 -i 6 -a 2 -x {1.0 5.0 -1 ------- null}
d -t 1.008004 -s 4 -d 6 -p cbr -e 1000 -c 2 -i 6 -a 2 -x {1.0 5.0 4 ------- null}
r -t 1.014808 -s 0 -d 2 -p tcp -e 1040 -c 1 -i 7 -a 1 -x {0.0 4.0 1 ------- null}
+ -t 1.014808 -s 2 -d 3 -p tcp -e 1040 -c 1 -i 7 -a 1 -x {0.0 4.0 1 ------- null}
- -t 1.014808 -s 2 -d 3 -p tcp -e 1040 -c 1 -i 7 -a 1 -x {0.0 4.0 1 ------- null}
h -t 1.014808 -s 2 -d 3 -p tcp -e 1040 -c 1 -i 7 -a 1 -x {0.0 4.0 -1 ------- null}
r -t 1.018968 -s 0 -d 2 -p tcp -e 1040 -c 1 -i 8 -a 1 -x {0.0 4.0 2 ------- null}
+ -t 1.018968 -s 2 -d 3 -p tcp -e 1040 -c 1 -i 8 -a 1 -x {0.0 4.0 2 ------- null}
- -t 1.018968 -s 2 -d 3 -p tcp -e 1040 -c 1 -i 8 -a 1 -x {0.0 4.0 2 ------- null}
h -t 1.018968 -s 2 -d 3 -p tcp -e 1040 -c 1 -i 8 -a 1 -x {0.0 4.0 -1 ------- null}
r -t 1.028968 -s 2 -d 3 -p tcp -e 1040 -c 1 -i 7 -a 1 -x {0.0 4.0 1 ------- null}
h -t 1.028968 -s 3 -d 6 -p tcp -e 1040 -c 1 -i 7 -a 1 -x {0.0 4.0 1 ------- null}
r -t 1.033128 -s 2 -d 3 -p tcp -e 1040 -c 1 -i 8 -a 1 -x {0.0 4.0 2 ------- null}
h -t 1.033128 -s 3 -d 6 -p tcp -e 1040 -c 1 -i 8 -a 1 -x {0.0 4.0 2 ------- null}
r -t 1.048004 -s 6 -d 5 -p cbr -e 1000 -c 2 -i 6 -a 2 -x {1.0 5.0 4 ------- null}
+ -t 1.068968 -s 3 -d 6 -p tcp -e 1040 -c 1 -i 7 -a 1 -x {0.0 4.0 1 ------- null}
- -t 1.068968 -s 3 -d 6 -p tcp -e 1040 -c 1 -i 7 -a 1 -x {0.0 4.0 1 ------- null}
h -t 1.068968 -s 3 -d 6 -p tcp -e 1040 -c 1 -i 7 -a 1 -x {0.0 4.0 -1 ------- null}
d -t 1.068972 -s 5 -d 6 -p tcp -e 1040 -c 1 -i 7 -a 1 -x {0.0 4.0 1 ------- null}
+ -t 1.073128 -s 3 -d 6 -p tcp -e 1040 -c 1 -i 8 -a 1 -x {0.0 4.0 2 ------- null}
- -t 1.073384 -s 3 -d 6 -p tcp -e 1040 -c 1 -i 8 -a 1 -x {0.0 4.0 2 ------- null}
h -t 1.073384 -s 3 -d 6 -p tcp -e 1040 -c 1 -i 8 -a 1 -x {0.0 4.0 -1 ------- null}
d -t 1.073388 -s 5 -d 6 -p tcp -e 1040 -c 1 -i 8 -a 1 -x {0.0 4.0 2 ------- null}
+ -t 1.1 -s 1 -d 2 -p cbr -e 1000 -c 2 -i 9 -a 2 -x {1.0 5.0 5 ------- null}
- -t 1.1 -s 1 -d 2 -p cbr -e 1000 -c 2 -i 9 -a 2 -x {1.0 5.0 5 ------- null}
h -t 1.1 -s 1 -d 2 -p cbr -e 1000 -c 2 -i 9 -a 2 -x {1.0 5.0 -1 ------- null}
r -t 1.108972 -s 6 -d 4 -p tcp -e 1040 -c 1 -i 7 -a 1 -x {0.0 4.0 1 ------- null}
h -t 1.108972 -s 4 -d 6 -p ack -e 40 -c 1 -i 10 -a 1 -x {4.0 0.0 1 ------- null}
r -t 1.113388 -s 6 -d 4 -p tcp -e 1040 -c 1 -i 8 -a 1 -x {0.0 4.0 2 ------- null}
h -t 1.113388 -s 4 -d 6 -p ack -e 40 -c 1 -i 11 -a 1 -x {4.0 0.0 2 ------- null}
r -t 1.114 -s 1 -d 2 -p cbr -e 1000 -c 2 -i 9 -a 2 -x {1.0 5.0 5 ------- null}
+ -t 1.114 -s 2 -d 3 -p cbr -e 1000 -c 2 -i 9 -a 2 -x {1.0 5.0 5 ------- null}
- -t 1.114 -s 2 -d 3 -p cbr -e 1000 -c 2 -i 9 -a 2 -x {1.0 5.0 5 ------- null}
h -t 1.114 -s 2 -d 3 -p cbr -e 1000 -c 2 -i 9 -a 2 -x {1.0 5.0 -1 ------- null}
r -t 1.128 -s 2 -d 3 -p cbr -e 1000 -c 2 -i 9 -a 2 -x {1.0 5.0 5 ------- null}
h -t 1.128 -s 3 -d 6 -p cbr -e 1000 -c 2 -i 9 -a 2 -x {1.0 5.0 5 ------- null}
+ -t 1.148972 -s 4 -d 6 -p ack -e 40 -c 1 -i 10 -a 1 -x {4.0 0.0 1 ------- null}
- -t 1.148972 -s 4 -d 6 -p ack -e 40 -c 1 -i 10 -a 1 -x {4.0 0.0 1 ------- null}
h -t 1.148972 -s 4 -d 6 -p ack -e 40 -c 1 -i 10 -a 1 -x {4.0 0.0 -1 ------- null}
d -t 1.148976 -s 5 -d 6 -p ack -e 40 -c 1 -i 10 -a 1 -x {4.0 0.0 1 ------- null}
+ -t 1.153388 -s 4 -d 6 -p ack -e 40 -c 1 -i 11 -a 1 -x {4.0 0.0 2 ------- null}
- -t 1.153388 -s 4 -d 6 -p ack -e 40 -c 1 -i 11 -a 1 -x {4.0 0.0 2 ------- null}
h -t 1.153388 -s 4 -d 6 -p ack -e 40 -c 1 -i 11 -a 1 -x {4.0 0.0 -1 ------- null}
d -t 1.153392 -s 5 -d 6 -p ack -e 40 -c 1 -i 11 -a 1 -x {4.0 0.0 2 ------- null}
+ -t 1.168 -s 3 -d 6 -p cbr -e 1000 -c 2 -i 9 -a 2 -x {1.0 5.0 5 ------- null}
- -t 1.168 -s 3 -d 6 -p cbr -e 1000 -c 2 -i 9 -a 2 -x {1.0 5.0 5 ------- null}
h -t 1.168 -s 3 -d 6 -p cbr -e 1000 -c 2 -i 9 -a 2 -x {1.0 5.0 -1 ------- null}
d -t 1.168004 -s 4 -d 6 -p cbr -e 1000 -c 2 -i 9 -a 2 -x {1.0 5.0 5 ------- null}
r -t 1.188976 -s 6 -d 3 -p ack -e 40 -c 1 -i 10 -a 1 -x {4.0 0.0 1 ------- null}
+ -t 1.188976 -s 3 -d 2 -p ack -e 40 -c 1 -i 10 -a 1 -x {4.0 0.0 1 ------- null}
- -t 1.188976 -s 3 -d 2 -p ack -e 40 -c 1 -i 10 -a 1 -x {4.0 0.0 1 ------- null}
h -t 1.188976 -s 3 -d 2 -p ack -e 40 -c 1 -i 10 -a 1 -x {4.0 0.0 -1 ------- null}
r -t 1.193392 -s 6 -d 3 -p ack -e 40 -c 1 -i 11 -a 1 -x {4.0 0.0 2 ------- null}
+ -t 1.193392 -s 3 -d 2 -p ack -e 40 -c 1 -i 11 -a 1 -x {4.0 0.0 2 ------- null}
- -t 1.193392 -s 3 -d 2 -p ack -e 40 -c 1 -i 11 -a 1 -x {4.0 0.0 2 ------- null}
h -t 1.193392 -s 3 -d 2 -p ack -e 40 -c 1 -i 11 -a 1 -x {4.0 0.0 -1 ------- null}
r -t 1.199136 -s 3 -d 2 -p ack -e 40 -c 1 -i 10 -a 1 -x {4.0 0.0 1 ------- null}
+ -t 1.199136 -s 2 -d 0 -p ack -e 40 -c 1 -i 10 -a 1 -x {4.0 0.0 1 ------- null}
- -t 1.199136 -s 2 -d 0 -p ack -e 40 -c 1 -i 10 -a 1 -x {4.0 0.0 1 ------- null}
h -t 1.199136 -s 2 -d 0 -p ack -e 40 -c 1 -i 10 -a 1 -x {4.0 0.0 -1 ------- null}
r -t 1.203552 -s 3 -d 2 -p ack -e 40 -c 1 -i 11 -a 1 -x {4.0 0.0 2 ------- null}
+ -t 1.203552 -s 2 -d 0 -p ack -e 40 -c 1 -i 11 -a 1 -x {4.0 0.0 2 ------- null}
- -t 1.203552 -s 2 -d 0 -p ack -e 40 -c 1 -i 11 -a 1 -x {4.0 0.0 2 ------- null}
h -t 1.203552 -s 2 -d 0 -p ack -e 40 -c 1 -i 11 -a 1 -x {4.0 0.0 -1 ------- null}
r -t 1.208004 -s 6 -d 5 -p cbr -e 1000 -c 2 -i 9 -a 2 -x {1.0 5.0 5 ------- null}
r -t 1.209296 -s 2 -d 0 -p ack -e 40 -c 1 -i 10 -a 1 -x {4.0 0.0 1 ------- null}
+ -t 1.209296 -s 0 -d 2 -p tcp -e 1040 -c 1 -i 12 -a 1 -x {0.0 4.0 3 ------- null}
- -t 1.209296 -s 0 -d 2 -p tcp -e 1040 -c 1 -i 12 -a 1 -x {0.0 4.0 3 ------- null}
h -t 1.209296 -s 0 -d 2 -p tcp -e 1040 -c 1 -i 12 -a 1 -x {0.0 4.0 -1 ------- null}
+ -t 1.209296 -s 0 -d 2 -p tcp -e 1040 -c 1 -i 13 -a 1 -x {0.0 4.0 4 ------- null}
- -t 1.213456 -s 0 -d 2 -p tcp -e 1040 -c 1 -i 13 -a 1 -x {0.0 4.0 4 ------- null}
h -t 1.213456 -s 0 -d 2 -p tcp -e 1040 -c 1 -i 13 -a 1 -x {0.0 4.0 -1 ------- null}
r -t 1.213712 -s 2 -d 0 -p ack -e 40 -c 1 -i 11 -a 1 -x {4.0 0.0 2 ------- null}
+ -t 1.213712 -s 0 -d 2 -p tcp -e 1040 -c 1 -i 14 -a 1 -x {0.0 4.0 5 ------- null}
+ -t 1.213712 -s 0 -d 2 -p tcp -e 1040 -c 1 -i 15 -a 1 -x {0.0 4.0 6 ------- null}
- -t 1.217616 -s 0 -d 2 -p tcp -e 1040 -c 1 -i 14 -a 1 -x {0.0 4.0 5 ------- null}
h -t 1.217616 -s 0 -d 2 -p tcp -e 1040 -c 1 -i 14 -a 1 -x {0.0 4.0 -1 ------- null}
- -t 1.221776 -s 0 -d 2 -p tcp -e 1040 -c 1 -i 15 -a 1 -x {0.0 4.0 6 ------- null}
h -t 1.221776 -s 0 -d 2 -p tcp -e 1040 -c 1 -i 15 -a 1 -x {0.0 4.0 -1 ------- null}
r -t 1.223456 -s 0 -d 2 -p tcp -e 1040 -c 1 -i 12 -a 1 -x {0.0 4.0 3 ------- null}
+ -t 1.223456 -s 2 -d 3 -p tcp -e 1040 -c 1 -i 12 -a 1 -x {0.0 4.0 3 ------- null}
- -t 1.223456 -s 2 -d 3 -p tcp -e 1040 -c 1 -i 12 -a 1 -x {0.0 4.0 3 ------- null}
h -t 1.223456 -s 2 -d 3 -p tcp -e 1040 -c 1 -i 12 -a 1 -x {0.0 4.0 -1 ------- null}
r -t 1.227616 -s 0 -d 2 -p tcp -e 1040 -c 1 -i 13 -a 1 -x {0.0 4.0 4 ------- null}
+ -t 1.227616 -s 2 -d 3 -p tcp -e 1040 -c 1 -i 13 -a 1 -x {0.0 4.0 4 ------- null}
- -t 1.227616 -s 2 -d 3 -p tcp -e 1040 -c 1 -i 13 -a 1 -x {0.0 4.0 4 ------- null}
h -t 1.227616 -s 2 -d 3 -p tcp -e 1040 -c 1 -i 13 -a 1 -x {0.0 4.0 -1 ------- null}
r -t 1.231776 -s 0 -d 2 -p tcp -e 1040 -c 1 -i 14 -a 1 -x {0.0 4.0 5 ------- null}
+ -t 1.231776 -s 2 -d 3 -p tcp -e 1040 -c 1 -i 14 -a 1 -x {0.0 4.0 5 ------- null}
- -t 1.231776 -s 2 -d 3 -p tcp -e 1040 -c 1 -i 14 -a 1 -x {0.0 4.0 5 ------- null}
h -t 1.231776 -s 2 -d 3 -p tcp -e 1040 -c 1 -i 14 -a 1 -x {0.0 4.0 -1 ------- null}
r -t 1.235936 -s 0 -d 2 -p tcp -e 1040 -c 1 -i 15 -a 1 -x {0.0 4.0 6 ------- null}
+ -t 1.235936 -s 2 -d 3 -p tcp -e 1040 -c 1 -i 15 -a 1 -x {0.0 4.0 6 ------- null}
- -t 1.235936 -s 2 -d 3 -p tcp -e 1040 -c 1 -i 15 -a 1 -x {0.0 4.0 6 ------- null}
h -t 1.235936 -s 2 -d 3 -p tcp -e 1040 -c 1 -i 15 -a 1 -x {0.0 4.0 -1 ------- null}
r -t 1.237616 -s 2 -d 3 -p tcp -e 1040 -c 1 -i 12 -a 1 -x {0.0 4.0 3 ------- null}
h -t 1.237616 -s 3 -d 6 -p tcp -e 1040 -c 1 -i 12 -a 1 -x {0.0 4.0 3 ------- null}
r -t 1.241776 -s 2 -d 3 -p tcp -e 1040 -c 1 -i 13 -a 1 -x {0.0 4.0 4 ------- null}
h -t 1.241776 -s 3 -d 6 -p tcp -e 1040 -c 1 -i 13 -a 1 -x {0.0 4.0 4 ------- null}
r -t 1.245936 -s 2 -d 3 -p tcp -e 1040 -c 1 -i 14 -a 1 -x {0.0 4.0 5 ------- null}
h -t 1.245936 -s 3 -d 6 -p tcp -e 1040 -c 1 -i 14 -a 1 -x {0.0 4.0 5 ------- null}
r -t 1.250096 -s 2 -d 3 -p tcp -e 1040 -c 1 -i 15 -a 1 -x {0.0 4.0 6 ------- null}
h -t 1.250096 -s 3 -d 6 -p tcp -e 1040 -c 1 -i 15 -a 1 -x {0.0 4.0 6 ------- null}
+ -t 1.26 -s 1 -d 2 -p cbr -e 1000 -c 2 -i 16 -a 2 -x {1.0 5.0 6 ------- null}
- -t 1.26 -s 1 -d 2 -p cbr -e 1000 -c 2 -i 16 -a 2 -x {1.0 5.0 6 ------- null}
h -t 1.26 -s 1 -d 2 -p cbr -e 1000 -c 2 -i 16 -a 2 -x {1.0 5.0 -1 ------- null}
r -t 1.274 -s 1 -d 2 -p cbr -e 1000 -c 2 -i 16 -a 2 -x {1.0 5.0 6 ------- null}
+ -t 1.274 -s 2 -d 3 -p cbr -e 1000 -c 2 -i 16 -a 2 -x {1.0 5.0 6 ------- null}
- -t 1.274 -s 2 -d 3 -p cbr -e 1000 -c 2 -i 16 -a 2 -x {1.0 5.0 6 ------- null}
h -t 1.274 -s 2 -d 3 -p cbr -e 1000 -c 2 -i 16 -a 2 -x {1.0 5.0 -1 ------- null}
+ -t 1.277616 -s 3 -d 6 -p tcp -e 1040 -c 1 -i 12 -a 1 -x {0.0 4.0 3 ------- null}
- -t 1.277616 -s 3 -d 6 -p tcp -e 1040 -c 1 -i 12 -a 1 -x {0.0 4.0 3 ------- null}
h -t 1.277616 -s 3 -d 6 -p tcp -e 1040 -c 1 -i 12 -a 1 -x {0.0 4.0 -1 ------- null}
d -t 1.27762 -s 5 -d 6 -p tcp -e 1040 -c 1 -i 12 -a 1 -x {0.0 4.0 3 ------- null}
+ -t 1.281776 -s 3 -d 6 -p tcp -e 1040 -c 1 -i 13 -a 1 -x {0.0 4.0 4 ------- null}
- -t 1.282032 -s 3 -d 6 -p tcp -e 1040 -c 1 -i 13 -a 1 -x {0.0 4.0 4 ------- null}
h -t 1.282032 -s 3 -d 6 -p tcp -e 1040 -c 1 -i 13 -a 1 -x {0.0 4.0 -1 ------- null}
d -t 1.282036 -s 5 -d 6 -p tcp -e 1040 -c 1 -i 13 -a 1 -x {0.0 4.0 4 ------- null}
+ -t 1.285936 -s 3 -d 6 -p tcp -e 1040 -c 1 -i 14 -a 1 -x {0.0 4.0 5 ------- null}
- -t 1.286448 -s 3 -d 6 -p tcp -e 1040 -c 1 -i 14 -a 1 -x {0.0 4.0 5 ------- null}
h -t 1.286448 -s 3 -d 6 -p tcp -e 1040 -c 1 -i 14 -a 1 -x {0.0 4.0 -1 ------- null}
d -t 1.286452 -s 5 -d 6 -p tcp -e 1040 -c 1 -i 14 -a 1 -x {0.0 4.0 5 ------- null}
r -t 1.288 -s 2 -d 3 -p cbr -e 1000 -c 2 -i 16 -a 2 -x {1.0 5.0 6 ------- null}
h -t 1.288 -s 3 -d 6 -p cbr -e 1000 -c 2 -i 16 -a 2 -x {1.0 5.0 6 ------- null}
+ -t 1.290096 -s 3 -d 6 -p tcp -e 1040 -c 1 -i 15 -a 1 -x {0.0 4.0 6 ------- null}
- -t 1.290864 -s 3 -d 6 -p tcp -e 1040 -c 1 -i 15 -a 1 -x {0.0 4.0 6 ------- null}
h -t 1.290864 -s 3 -d 6 -p tcp -e 1040 -c 1 -i 15 -a 1 -x {0.0 4.0 -1 ------- null}
d -t 1.290868 -s 5 -d 6 -p tcp -e 1040 -c 1 -i 15 -a 1 -x {0.0 4.0 6 ------- null}
r -t 1.31762 -s 6 -d 4 -p tcp -e 1040 -c 1 -i 12 -a 1 -x {0.0 4.0 3 ------- null}
h -t 1.31762 -s 4 -d 6 -p ack -e 40 -c 1 -i 17 -a 1 -x {4.0 0.0 3 ------- null}
r -t 1.322036 -s 6 -d 4 -p tcp -e 1040 -c 1 -i 13 -a 1 -x {0.0 4.0 4 ------- null}
h -t 1.322036 -s 4 -d 6 -p ack -e 40 -c 1 -i 18 -a 1 -x {4.0 0.0 4 ------- null}
r -t 1.326452 -s 6 -d 4 -p tcp -e 1040 -c 1 -i 14 -a 1 -x {0.0 4.0 5 ------- null}
h -t 1.326452 -s 4 -d 6 -p ack -e 40 -c 1 -i 19 -a 1 -x {4.0 0.0 5 ------- null}
+ -t 1.328 -s 3 -d 6 -p cbr -e 1000 -c 2 -i 16 -a 2 -x {1.0 5.0 6 ------- null}
- -t 1.328 -s 3 -d 6 -p cbr -e 1000 -c 2 -i 16 -a 2 -x {1.0 5.0 6 ------- null}
h -t 1.328 -s 3 -d 6 -p cbr -e 1000 -c 2 -i 16 -a 2 -x {1.0 5.0 -1 ------- null}
d -t 1.328004 -s 4 -d 6 -p cbr -e 1000 -c 2 -i 16 -a 2 -x {1.0 5.0 6 ------- null}
r -t 1.330868 -s 6 -d 4 -p tcp -e 1040 -c 1 -i 15 -a 1 -x {0.0 4.0 6 ------- null}
h -t 1.330868 -s 4 -d 6 -p ack -e 40 -c 1 -i 20 -a 1 -x {4.0 0.0 6 ------- null}
+ -t 1.35762 -s 4 -d 6 -p ack -e 40 -c 1 -i 17 -a 1 -x {4.0 0.0 3 ------- null}
- -t 1.35762 -s 4 -d 6 -p ack -e 40 -c 1 -i 17 -a 1 -x {4.0 0.0 3 ------- null}
h -t 1.35762 -s 4 -d 6 -p ack -e 40 -c 1 -i 17 -a 1 -x {4.0 0.0 -1 ------- null}
d -t 1.357624 -s 5 -d 6 -p ack -e 40 -c 1 -i 17 -a 1 -x {4.0 0.0 3 ------- null}
+ -t 1.362036 -s 4 -d 6 -p ack -e 40 -c 1 -i 18 -a 1 -x {4.0 0.0 4 ------- null}
- -t 1.362036 -s 4 -d 6 -p ack -e 40 -c 1 -i 18 -a 1 -x {4.0 0.0 4 ------- null}
h -t 1.362036 -s 4 -d 6 -p ack -e 40 -c 1 -i 18 -a 1 -x {4.0 0.0 -1 ------- null}
d -t 1.36204 -s 5 -d 6 -p ack -e 40 -c 1 -i 18 -a 1 -x {4.0 0.0 4 ------- null}
+ -t 1.366452 -s 4 -d 6 -p ack -e 40 -c 1 -i 19 -a 1 -x {4.0 0.0 5 ------- null}
- -t 1.366452 -s 4 -d 6 -p ack -e 40 -c 1 -i 19 -a 1 -x {4.0 0.0 5 ------- null}
h -t 1.366452 -s 4 -d 6 -p ack -e 40 -c 1 -i 19 -a 1 -x {4.0 0.0 -1 ------- null}
d -t 1.366456 -s 5 -d 6 -p ack -e 40 -c 1 -i 19 -a 1 -x {4.0 0.0 5 ------- null}
r -t 1.368004 -s 6 -d 5 -p cbr -e 1000 -c 2 -i 16 -a 2 -x {1.0 5.0 6 ------- null}
+ -t 1.370868 -s 4 -d 6 -p ack -e 40 -c 1 -i 20 -a 1 -x {4.0 0.0 6 ------- null}
- -t 1.370868 -s 4 -d 6 -p ack -e 40 -c 1 -i 20 -a 1 -x {4.0 0.0 6 ------- null}
h -t 1.370868 -s 4 -d 6 -p ack -e 40 -c 1 -i 20 -a 1 -x {4.0 0.0 -1 ------- null}
d -t 1.370872 -s 5 -d 6 -p ack -e 40 -c 1 -i 20 -a 1 -x {4.0 0.0 6 ------- null}
r -t 1.397624 -s 6 -d 3 -p ack -e 40 -c 1 -i 17 -a 1 -x {4.0 0.0 3 ------- null}
+ -t 1.397624 -s 3 -d 2 -p ack -e 40 -c 1 -i 17 -a 1 -x {4.0 0.0 3 ------- null}
- -t 1.397624 -s 3 -d 2 -p ack -e 40 -c 1 -i 17 -a 1 -x {4.0 0.0 3 ------- null}
h -t 1.397624 -s 3 -d 2 -p ack -e 40 -c 1 -i 17 -a 1 -x {4.0 0.0 -1 ------- null}
r -t 1.40204 -s 6 -d 3 -p ack -e 40 -c 1 -i 18 -a 1 -x {4.0 0.0 4 ------- null}
+ -t 1.40204 -s 3 -d 2 -p ack -e 40 -c 1 -i 18 -a 1 -x {4.0 0.0 4 ------- null}
- -t 1.40204 -s 3 -d 2 -p ack -e 40 -c 1 -i 18 -a 1 -x {4.0 0.0 4 ------- null}
h -t 1.40204 -s 3 -d 2 -p ack -e 40 -c 1 -i 18 -a 1 -x {4.0 0.0 -1 ------- null}
r -t 1.406456 -s 6 -d 3 -p ack -e 40 -c 1 -i 19 -a 1 -x {4.0 0.0 5 ------- null}
+ -t 1.406456 -s 3 -d 2 -p ack -e 40 -c 1 -i 19 -a 1 -x {4.0 0.0 5 ------- null}
- -t 1.406456 -s 3 -d 2 -p ack -e 40 -c 1 -i 19 -a 1 -x {4.0 0.0 5 ------- null}
h -t 1.406456 -s 3 -d 2 -p ack -e 40 -c 1 -i 19 -a 1 -x {4.0 0.0 -1 ------- null}
r -t 1.407784 -s 3 -d 2 -p ack -e 40 -c 1 -i 17 -a 1 -x {4.0 0.0 3 ------- null}
+ -t 1.407784 -s 2 -d 0 -p ack -e 40 -c 1 -i 17 -a 1 -x {4.0 0.0 3 ------- null}
- -t 1.407784 -s 2 -d 0 -p ack -e 40 -c 1 -i 17 -a 1 -x {4.0 0.0 3 ------- null}
h -t 1.407784 -s 2 -d 0 -p ack -e 40 -c 1 -i 17 -a 1 -x {4.0 0.0 -1 ------- null}
r -t 1.410872 -s 6 -d 3 -p ack -e 40 -c 1 -i 20 -a 1 -x {4.0 0.0 6 ------- null}
+ -t 1.410872 -s 3 -d 2 -p ack -e 40 -c 1 -i 20 -a 1 -x {4.0 0.0 6 ------- null}
- -t 1.410872 -s 3 -d 2 -p ack -e 40 -c 1 -i 20 -a 1 -x {4.0 0.0 6 ------- null}
h -t 1.410872 -s 3 -d 2 -p ack -e 40 -c 1 -i 20 -a 1 -x {4.0 0.0 -1 ------- null}
r -t 1.4122 -s 3 -d 2 -p ack -e 40 -c 1 -i 18 -a 1 -x {4.0 0.0 4 ------- null}
+ -t 1.4122 -s 2 -d 0 -p ack -e 40 -c 1 -i 18 -a 1 -x {4.0 0.0 4 ------- null}
- -t 1.4122 -s 2 -d 0 -p ack -e 40 -c 1 -i 18 -a 1 -x {4.0 0.0 4 ------- null}
h -t 1.4122 -s 2 -d 0 -p ack -e 40 -c 1 -i 18 -a 1 -x {4.0 0.0 -1 ------- null}
r -t 1.416616 -s 3 -d 2 -p ack -e 40 -c 1 -i 19 -a 1 -x {4.0 0.0 5 ------- null}
+ -t 1.416616 -s 2 -d 0 -p ack -e 40 -c 1 -i 19 -a 1 -x {4.0 0.0 5 ------- null}
- -t 1.416616 -s 2 -d 0 -p ack -e 40 -c 1 -i 19 -a 1 -x {4.0 0.0 5 ------- null}
h -t 1.416616 -s 2 -d 0 -p ack -e 40 -c 1 -i 19 -a 1 -x {4.0 0.0 -1 ------- null}
r -t 1.417944 -s 2 -d 0 -p ack -e 40 -c 1 -i 17 -a 1 -x {4.0 0.0 3 ------- null}
+ -t 1.417944 -s 0 -d 2 -p tcp -e 1040 -c 1 -i 21 -a 1 -x {0.0 4.0 7 ------- null}
- -t 1.417944 -s 0 -d 2 -p tcp -e 1040 -c 1 -i 21 -a 1 -x {0.0 4.0 7 ------- null}
h -t 1.417944 -s 0 -d 2 -p tcp -e 1040 -c 1 -i 21 -a 1 -x {0.0 4.0 -1 ------- null}
+ -t 1.417944 -s 0 -d 2 -p tcp -e 1040 -c 1 -i 22 -a 1 -x {0.0 4.0 8 ------- null}
+ -t 1.42 -s 1 -d 2 -p cbr -e 1000 -c 2 -i 23 -a 2 -x {1.0 5.0 7 ------- null}
- -t 1.42 -s 1 -d 2 -p cbr -e 1000 -c 2 -i 23 -a 2 -x {1.0 5.0 7 ------- null}
h -t 1.42 -s 1 -d 2 -p cbr -e 1000 -c 2 -i 23 -a 2 -x {1.0 5.0 -1 ------- null}
r -t 1.421032 -s 3 -d 2 -p ack -e 40 -c 1 -i 20 -a 1 -x {4.0 0.0 6 ------- null}
+ -t 1.421032 -s 2 -d 0 -p ack -e 40 -c 1 -i 20 -a 1 -x {4.0 0.0 6 ------- null}
- -t 1.421032 -s 2 -d 0 -p ack -e 40 -c 1 -i 20 -a 1 -x {4.0 0.0 6 ------- null}
h -t 1.421032 -s 2 -d 0 -p ack -e 40 -c 1 -i 20 -a 1 -x {4.0 0.0 -1 ------- null}
- -t 1.422104 -s 0 -d 2 -p tcp -e 1040 -c 1 -i 22 -a 1 -x {0.0 4.0 8 ------- null}
h -t 1.422104 -s 0 -d 2 -p tcp -e 1040 -c 1 -i 22 -a 1 -x {0.0 4.0 -1 ------- null}
r -t 1.42236 -s 2 -d 0 -p ack -e 40 -c 1 -i 18 -a 1 -x {4.0 0.0 4 ------- null}
+ -t 1.42236 -s 0 -d 2 -p tcp -e 1040 -c 1 -i 24 -a 1 -x {0.0 4.0 9 ------- null}
+ -t 1.42236 -s 0 -d 2 -p tcp -e 1040 -c 1 -i 25 -a 1 -x {0.0 4.0 10 ------- null}
- -t 1.426264 -s 0 -d 2 -p tcp -e 1040 -c 1 -i 24 -a 1 -x {0.0 4.0 9 ------- null}
h -t 1.426264 -s 0 -d 2 -p tcp -e 1040 -c 1 -i 24 -a 1 -x {0.0 4.0 -1 ------- null}
r -t 1.426776 -s 2 -d 0 -p ack -e 40 -c 1 -i 19 -a 1 -x {4.0 0.0 5 ------- null}
+ -t 1.426776 -s 0 -d 2 -p tcp -e 1040 -c 1 -i 26 -a 1 -x {0.0 4.0 11 ------- null}
+ -t 1.426776 -s 0 -d 2 -p tcp -e 1040 -c 1 -i 27 -a 1 -x {0.0 4.0 12 ------- null}
- -t 1.430424 -s 0 -d 2 -p tcp -e 1040 -c 1 -i 25 -a 1 -x {0.0 4.0 10 ------- null}
h -t 1.430424 -s 0 -d 2 -p tcp -e 1040 -c 1 -i 25 -a 1 -x {0.0 4.0 -1 ------- null}
r -t 1.431192 -s 2 -d 0 -p ack -e 40 -c 1 -i 20 -a 1 -x {4.0 0.0 6 ------- null}
+ -t 1.431192 -s 0 -d 2 -p tcp -e 1040 -c 1 -i 28 -a 1 -x {0.0 4.0 13 ------- null}
+ -t 1.431192 -s 0 -d 2 -p tcp -e 1040 -c 1 -i 29 -a 1 -x {0.0 4.0 14 ------- null}
r -t 1.432104 -s 0 -d 2 -p tcp -e 1040 -c 1 -i 21 -a 1 -x {0.0 4.0 7 ------- null}
+ -t 1.432104 -s 2 -d 3 -p tcp -e 1040 -c 1 -i 21 -a 1 -x {0.0 4.0 7 ------- null}
- -t 1.432104 -s 2 -d 3 -p tcp -e 1040 -c 1 -i 21 -a 1 -x {0.0 4.0 7 ------- null}
h -t 1.432104 -s 2 -d 3 -p tcp -e 1040 -c 1 -i 21 -a 1 -x {0.0 4.0 -1 ------- null}
r -t 1.434 -s 1 -d 2 -p cbr -e 1000 -c 2 -i 23 -a 2 -x {1.0 5.0 7 ------- null}
+ -t 1.434 -s 2 -d 3 -p cbr -e 1000 -c 2 -i 23 -a 2 -x {1.0 5.0 7 ------- null}
- -t 1.434584 -s 0 -d 2 -p tcp -e 1040 -c 1 -i 26 -a 1 -x {0.0 4.0 11 ------- null}
h -t 1.434584 -s 0 -d 2 -p tcp -e 1040 -c 1 -i 26 -a 1 -x {0.0 4.0 -1 ------- null}
r -t 1.436264 -s 0 -d 2 -p tcp -e 1040 -c 1 -i 22 -a 1 -x {0.0 4.0 8 ------- null}
+ -t 1.436264 -s 2 -d 3 -p tcp -e 1040 -c 1 -i 22 -a 1 -x {0.0 4.0 8 ------- null}
- -t 1.436264 -s 2 -d 3 -p cbr -e 1000 -c 2 -i 23 -a 2 -x {1.0 5.0 7 ------- null}
h -t 1.436264 -s 2 -d 3 -p cbr -e 1000 -c 2 -i 23 -a 2 -x {1.0 5.0 -1 ------- null}
- -t 1.438744 -s 0 -d 2 -p tcp -e 1040 -c 1 -i 27 -a 1 -x {0.0 4.0 12 ------- null}
h -t 1.438744 -s 0 -d 2 -p tcp -e 1040 -c 1 -i 27 -a 1 -x {0.0 4.0 -1 ------- null}
- -t 1.440264 -s 2 -d 3 -p tcp -e 1040 -c 1 -i 22 -a 1 -x {0.0 4.0 8 ------- null}
h -t 1.440264 -s 2 -d 3 -p tcp -e 1040 -c 1 -i 22 -a 1 -x {0.0 4.0 -1 ------- null}
r -t 1.440424 -s 0 -d 2 -p tcp -e 1040 -c 1 -i 24 -a 1 -x {0.0 4.0 9 ------- null}
+ -t 1.440424 -s 2 -d 3 -p tcp -e 1040 -c 1 -i 24 -a 1 -x {0.0 4.0 9 ------- null}
- -t 1.442904 -s 0 -d 2 -p tcp -e 1040 -c 1 -i 28 -a 1 -x {0.0 4.0 13 ------- null}
h -t 1.442904 -s 0 -d 2 -p tcp -e 1040 -c 1 -i 28 -a 1 -x {0.0 4.0 -1 ------- null}
- -t 1.444424 -s 2 -d 3 -p tcp -e 1040 -c 1 -i 24 -a 1 -x {0.0 4.0 9 ------- null}
h -t 1.444424 -s 2 -d 3 -p tcp -e 1040 -c 1 -i 24 -a 1 -x {0.0 4.0 -1 ------- null}
r -t 1.444584 -s 0 -d 2 -p tcp -e 1040 -c 1 -i 25 -a 1 -x {0.0 4.0 10 ------- null}
+ -t 1.444584 -s 2 -d 3 -p tcp -e 1040 -c 1 -i 25 -a 1 -x {0.0 4.0 10 ------- null}
r -t 1.446264 -s 2 -d 3 -p tcp -e 1040 -c 1 -i 21 -a 1 -x {0.0 4.0 7 ------- null}
h -t 1.446264 -s 3 -d 6 -p tcp -e 1040 -c 1 -i 21 -a 1 -x {0.0 4.0 7 ------- null}
- -t 1.447064 -s 0 -d 2 -p tcp -e 1040 -c 1 -i 29 -a 1 -x {0.0 4.0 14 ------- null}
h -t 1.447064 -s 0 -d 2 -p tcp -e 1040 -c 1 -i 29 -a 1 -x {0.0 4.0 -1 ------- null}
- -t 1.448584 -s 2 -d 3 -p tcp -e 1040 -c 1 -i 25 -a 1 -x {0.0 4.0 10 ------- null}
h -t 1.448584 -s 2 -d 3 -p tcp -e 1040 -c 1 -i 25 -a 1 -x {0.0 4.0 -1 ------- null}
r -t 1.448744 -s 0 -d 2 -p tcp -e 1040 -c 1 -i 26 -a 1 -x {0.0 4.0 11 ------- null}
+ -t 1.448744 -s 2 -d 3 -p tcp -e 1040 -c 1 -i 26 -a 1 -x {0.0 4.0 11 ------- null}
r -t 1.450264 -s 2 -d 3 -p cbr -e 1000 -c 2 -i 23 -a 2 -x {1.0 5.0 7 ------- null}
h -t 1.450264 -s 3 -d 6 -p cbr -e 1000 -c 2 -i 23 -a 2 -x {1.0 5.0 7 ------- null}
- -t 1.452744 -s 2 -d 3 -p tcp -e 1040 -c 1 -i 26 -a 1 -x {0.0 4.0 11 ------- null}
h -t 1.452744 -s 2 -d 3 -p tcp -e 1040 -c 1 -i 26 -a 1 -x {0.0 4.0 -1 ------- null}
r -t 1.452904 -s 0 -d 2 -p tcp -e 1040 -c 1 -i 27 -a 1 -x {0.0 4.0 12 ------- null}
+ -t 1.452904 -s 2 -d 3 -p tcp -e 1040 -c 1 -i 27 -a 1 -x {0.0 4.0 12 ------- null}
r -t 1.454424 -s 2 -d 3 -p tcp -e 1040 -c 1 -i 22 -a 1 -x {0.0 4.0 8 ------- null}
h -t 1.454424 -s 3 -d 6 -p tcp -e 1040 -c 1 -i 22 -a 1 -x {0.0 4.0 8 ------- null}
- -t 1.456904 -s 2 -d 3 -p tcp -e 1040 -c 1 -i 27 -a 1 -x {0.0 4.0 12 ------- null}
h -t 1.456904 -s 2 -d 3 -p tcp -e 1040 -c 1 -i 27 -a 1 -x {0.0 4.0 -1 ------- null}
r -t 1.457064 -s 0 -d 2 -p tcp -e 1040 -c 1 -i 28 -a 1 -x {0.0 4.0 13 ------- null}
+ -t 1.457064 -s 2 -d 3 -p tcp -e 1040 -c 1 -i 28 -a 1 -x {0.0 4.0 13 ------- null}
r -t 1.458584 -s 2 -d 3 -p tcp -e 1040 -c 1 -i 24 -a 1 -x {0.0 4.0 9 ------- null}
h -t 1.458584 -s 3 -d 6 -p tcp -e 1040 -c 1 -i 24 -a 1 -x {0.0 4.0 9 ------- null}