+ 0.3 1 2 cbr 1000 ------- 2 1.0 5.0 0 0
- 0.3 1 2 cbr 1000 ------- 2 1.0 5.0 0 0
r 0.314 1 2 cbr 1000 ------- 2 1.0 5.0 0 0
+ 0.314 2 3 cbr 1000 ------- 2 1.0 5.0 0 0
- 0.314 2 3 cbr 1000 ------- 2 1.0 5.0 0 0
r 0.328 2 3 cbr 1000 ------- 2 1.0 5.0 0 0
h 0.328 3 6 cbr 1000 ------- 2 1.0 5.0 0 0
+ 0.368 3 6 cbr 1000 ------- 2 1.0 5.0 0 0
- 0.368 3 6 cbr 1000 ------- 2 1.0 5.0 0 0
d 0.368004 4 6 cbr 1000 ------- 2 1.0 5.0 0 0
r 0.408004 6 5 cbr 1000 ------- 2 1.0 5.0 0 0
+ 0.46 1 2 cbr 1000 ------- 2 1.0 5.0 1 1
- 0.46 1 2 cbr 1000 ------- 2 1.0 5.0 1 1
r 0.474 1 2 cbr 1000 ------- 2 1.0 5.0 1 1
+ 0.474 2 3 cbr 1000 ------- 2 1.0 5.0 1 1
- 0.474 2 3 cbr 1000 ------- 2 1.0 5.0 1 1
r 0.488 2 3 cbr 1000 ------- 2 1.0 5.0 1 1
h 0.488 3 6 cbr 1000 ------- 2 1.0 5.0 1 1
+ 0.528 3 6 cbr 1000 ------- 2 1.0 5.0 1 1
- 0.528 3 6 cbr 1000 ------- 2 1.0 5.0 1 1
d 0.528004 4 6 cbr 1000 ------- 2 1.0 5.0 1 1
r 0.568004 6 5 cbr 1000 ------- 2 1.0 5.0 1 1
+ 0.62 1 2 cbr 1000 ------- 2 1.0 5.0 2 2
- 0.62 1 2 cbr 1000 ------- 2 1.0 5.0 2 2
r 0.634 1 2 cbr 1000 ------- 2 1.0 5.0 2 2
+ 0.634 2 3 cbr 1000 ------- 2 1.0 5.0 2 2
- 0.634 2 3 cbr 1000 ------- 2 1.0 5.0 2 2
r 0.648 2 3 cbr 1000 ------- 2 1.0 5.0 2 2
h 0.648 3 6 cbr 1000 ------- 2 1.0 5.0 2 2
+ 0.688 3 6 cbr 1000 ------- 2 1.0 5.0 2 2
- 0.688 3 6 cbr 1000 ------- 2 1.0 5.0 2 2
d 0.688004 4 6 cbr 1000 ------- 2 1.0 5.0 2 2
r 0.728004 6 5 cbr 1000 ------- 2 1.0 5.0 2 2
+ 0.78 1 2 cbr 1000 ------- 2 1.0 5.0 3 3
- 0.78 1 2 cbr 1000 ------- 2 1.0 5.0 3 3
r 0.794 1 2 cbr 1000 ------- 2 1.0 5.0 3 3
+ 0.794 2 3 cbr 1000 ------- 2 1.0 5.0 3 3
- 0.794 2 3 cbr 1000 ------- 2 1.0 5.0 3 3
+ 0.8 0 2 tcp 40 ------- 1 0.0 4.0 0 4
- 0.8 0 2 tcp 40 ------- 1 0.0 4.0 0 4
r 0.808 2 3 cbr 1000 ------- 2 1.0 5.0 3 3
h 0.808 3 6 cbr 1000 ------- 2 1.0 5.0 3 3
r 0.81016 0 2 tcp 40 ------- 1 0.0 4.0 0 4
+ 0.81016 2 3 tcp 40 ------- 1 0.0 4.0 0 4
- 0.81016 2 3 tcp 40 ------- 1 0.0 4.0 0 4
r 0.82032 2 3 tcp 40 ------- 1 0.0 4.0 0 4
h 0.82032 3 6 tcp 40 ------- 1 0.0 4.0 0 4
+ 0.848 3 6 cbr 1000 ------- 2 1.0 5.0 3 3
- 0.848 3 6 cbr 1000 ------- 2 1.0 5.0 3 3
d 0.848004 4 6 cbr 1000 ------- 2 1.0 5.0 3 3
+ 0.86032 3 6 tcp 40 ------- 1 0.0 4.0 0 4
- 0.86032 3 6 tcp 40 ------- 1 0.0 4.0 0 4
d 0.860324 5 6 tcp 40 ------- 1 0.0 4.0 0 4
r 0.888004 6 5 cbr 1000 ------- 2 1.0 5.0 3 3
r 0.900324 6 4 tcp 40 ------- 1 0.0 4.0 0 4
h 0.900324 4 6 ack 40 ------- 1 4.0 0.0 0 5
+ 0.94 1 2 cbr 1000 ------- 2 1.0 5.0 4 6
- 0.94 1 2 cbr 1000 ------- 2 1.0 5.0 4 6
+ 0.940324 4 6 ack 40 ------- 1 4.0 0.0 0 5
- 0.940324 4 6 ack 40 ------- 1 4.0 0.0 0 5
d 0.940328 5 6 ack 40 ------- 1 4.0 0.0 0 5
r 0.954 1 2 cbr 1000 ------- 2 1.0 5.0 4 6
+ 0.954 2 3 cbr 1000 ------- 2 1.0 5.0 4 6
- 0.954 2 3 cbr 1000 ------- 2 1.0 5.0 4 6
r 0.968 2 3 cbr 1000 ------- 2 1.0 5.0 4 6
h 0.968 3 6 cbr 1000 ------- 2 1.0 5.0 4 6
r 0.980328 6 3 ack 40 ------- 1 4.0 0.0 0 5
+ 0.980328 3 2 ack 40 ------- 1 4.0 0.0 0 5
- 0.980328 3 2 ack 40 ------- 1 4.0 0.0 0 5
r 0.990488 3 2 ack 40 ------- 1 4.0 0.0 0 5
+ 0.990488 2 0 ack 40 ------- 1 4.0 0.0 0 5
- 0.990488 2 0 ack 40 ------- 1 4.0 0.0 0 5
r 1.000648 2 0 ack 40 ------- 1 4.0 0.0 0 5
+ 1.000648 0 2 tcp 1040 ------- 1 0.0 4.0 1 7
- 1.000648 0 2 tcp 1040 ------- 1 0.0 4.0 1 7
+ 1.000648 0 2 tcp 1040 ------- 1 0.0 4.0 2 8
- 1.004808 0 2 tcp 1040 ------- 1 0.0 4.0 2 8
+ 1.008 3 6 cbr 1000 ------- 2 1.0 5.0 4 6
- 1.008 3 6 cbr 1000 ------- 2 1.0 5.0 4 6
d 1.008004 4 6 cbr 1000 ------- 2 1.0 5.0 4 6
r 1.014808 0 2 tcp 1040 ------- 1 0.0 4.0 1 7
+ 1.014808 2 3 tcp 1040 ------- 1 0.0 4.0 1 7
- 1.014808 2 3 tcp 1040 ------- 1 0.0 4.0 1 7
r 1.018968 0 2 tcp 1040 ------- 1 0.0 4.0 2 8
+ 1.018968 2 3 tcp 1040 ------- 1 0.0 4.0 2 8
- 1.018968 2 3 tcp 1040 ------- 1 0.0 4.0 2 8
r 1.028968 2 3 tcp 1040 ------- 1 0.0 4.0 1 7
h 1.028968 3 6 tcp 1040 ------- 1 0.0 4.0 1 7
r 1.033128 2 3 tcp 1040 ------- 1 0.0 4.0 2 8
h 1.033128 3 6 tcp 1040 ------- 1 0.0 4.0 2 8
r 1.048004 6 5 cbr 1000 ------- 2 1.0 5.0 4 6
+ 1.068968 3 6 tcp 1040 ------- 1 0.0 4.0 1 7
- 1.068968 3 6 tcp 1040 ------- 1 0.0 4.0 1 7
d 1.068972 5 6 tcp 1040 ------- 1 0.0 4.0 1 7
+ 1.073128 3 6 tcp 1040 ------- 1 0.0 4.0 2 8
- 1.073384 3 6 tcp 1040 ------- 1 0.0 4.0 2 8
d 1.073388 5 6 tcp 1040 ------- 1 0.0 4.0 2 8
+ 1.1 1 2 cbr 1000 ------- 2 1.0 5.0 5 9
- 1.1 1 2 cbr 1000 ------- 2 1.0 5.0 5 9
r 1.108972 6 4 tcp 1040 ------- 1 0.0 4.0 1 7
h 1.108972 4 6 ack 40 ------- 1 4.0 0.0 1 10
r 1.113388 6 4 tcp 1040 ------- 1 0.0 4.0 2 8
h 1.113388 4 6 ack 40 ------- 1 4.0 0.0 2 11
r 1.114 1 2 cbr 1000 ------- 2 1.0 5.0 5 9
+ 1.114 2 3 cbr 1000 ------- 2 1.0 5.0 5 9
- 1.114 2 3 cbr 1000 ------- 2 1.0 5.0 5 9
r 1.128 2 3 cbr 1000 ------- 2 1.0 5.0 5 9
h 1.128 3 6 cbr 1000 ------- 2 1.0 5.0 5 9
+ 1.148972 4 6 ack 40 ------- 1 4.0 0.0 1 10
- 1.148972 4 6 ack 40 ------- 1 4.0 0.0 1 10
d 1.148976 5 6 ack 40 ------- 1 4.0 0.0 1 10
+ 1.153388 4 6 ack 40 ------- 1 4.0 0.0 2 11
- 1.153388 4 6 ack 40 ------- 1 4.0 0.0 2 11
d 1.153392 5 6 ack 40 ------- 1 4.0 0.0 2 11
+ 1.168 3 6 cbr 1000 ------- 2 1.0 5.0 5 9
- 1.168 3 6 cbr 1000 ------- 2 1.0 5.0 5 9
d 1.168004 4 6 cbr 1000 ------- 2 1.0 5.0 5 9
r 1.188976 6 3 ack 40 ------- 1 4.0 0.0 1 10
+ 1.188976 3 2 ack 40 ------- 1 4.0 0.0 1 10
- 1.188976 3 2 ack 40 ------- 1 4.0 0.0 1 10
r 1.193392 6 3 ack 40 ------- 1 4.0 0.0 2 11
+ 1.193392 3 2 ack 40 ------- 1 4.0 0.0 2 11
- 1.193392 3 2 ack 40 ------- 1 4.0 0.0 2 11
r 1.199136 3 2 ack 40 ------- 1 4.0 0.0 1 10
+ 1.199136 2 0 ack 40 ------- 1 4.0 0.0 1 10
- 1.199136 2 0 ack 40 ------- 1 4.0 0.0 1 10
r 1.203552 3 2 ack 40 ------- 1 4.0 0.0 2 11
+ 1.203552 2 0 ack 40 ------- 1 4.0 0.0 2 11
- 1.203552 2 0 ack 40 ------- 1 4.0 0.0 2 11
r 1.208004 6 5 cbr 1000 ------- 2 1.0 5.0 5 9
r 1.209296 2 0 ack 40 ------- 1 4.0 0.0 1 10
+ 1.209296 0 2 tcp 1040 ------- 1 0.0 4.0 3 12
- 1.209296 0 2 tcp 1040 ------- 1 0.0 4.0 3 12
+ 1.209296 0 2 tcp 1040 ------- 1 0.0 4.0 4 13
- 1.213456 0 2 tcp 1040 ------- 1 0.0 4.0 4 13
r 1.213712 2 0 ack 40 ------- 1 4.0 0.0 2 11
+ 1.213712 0 2 tcp 1040 ------- 1 0.0 4.0 5 14
+ 1.213712 0 2 tcp 1040 ------- 1 0.0 4.0 6 15
- 1.217616 0 2 tcp 1040 ------- 1 0.0 4.0 5 14
- 1.221776 0 2 tcp 1040 ------- 1 0.0 4.0 6 15
r 1.223456 0 2 tcp 1040 ------- 1 0.0 4.0 3 12
+ 1.223456 2 3 tcp 1040 ------- 1 0.0 4.0 3 12
- 1.223456 2 3 tcp 1040 ------- 1 0.0 4.0 3 12
r 1.227616 0 2 tcp 1040 ------- 1 0.0 4.0 4 13
+ 1.227616 2 3 tcp 1040 ------- 1 0.0 4.0 4 13
- 1.227616 2 3 tcp 1040 ------- 1 0.0 4.0 4 13
r 1.231776 0 2 tcp 1040 ------- 1 0.0 4.0 5 14
+ 1.231776 2 3 tcp 1040 ------- 1 0.0 4.0 5 14
- 1.231776 2 3 tcp 1040 ------- 1 0.0 4.0 5 14
r 1.235936 0 2 tcp 1040 ------- 1 0.0 4.0 6 15
+ 1.235936 2 3 tcp 1040 ------- 1 0.0 4.0 6 15
- 1.235936 2 3 tcp 1040 ------- 1 0.0 4.0 6 15
r 1.237616 2 3 tcp 1040 ------- 1 0.0 4.0 3 12
h 1.237616 3 6 tcp 1040 ------- 1 0.0 4.0 3 12
r 1.241776 2 3 tcp 1040 ------- 1 0.0 4.0 4 13
h 1.241776 3 6 tcp 1040 ------- 1 0.0 4.0 4 13
r 1.245936 2 3 tcp 1040 ------- 1 0.0 4.0 5 14
h 1.245936 3 6 tcp 1040 ------- 1 0.0 4.0 5 14
r 1.250096 2 3 tcp 1040 ------- 1 0.0 4.0 6 15
h 1.250096 3 6 tcp 1040 ------- 1 0.0 4.0 6 15
+ 1.26 1 2 cbr 1000 ------- 2 1.0 5.0 6 16
- 1.26 1 2 cbr 1000 ------- 2 1.0 5.0 6 16
r 1.274 1 2 cbr 1000 ------- 2 1.0 5.0 6 16
+ 1.274 2 3 cbr 1000 ------- 2 1.0 5.0 6 16
- 1.274 2 3 cbr 1000 ------- 2 1.0 5.0 6 16
+ 1.277616 3 6 tcp 1040 ------- 1 0.0 4.0 3 12
- 1.277616 3 6 tcp 1040 ------- 1 0.0 4.0 3 12
d 1.27762 5 6 tcp 1040 ------- 1 0.0 4.0 3 12
+ 1.281776 3 6 tcp 1040 ------- 1 0.0 4.0 4 13
- 1.282032 3 6 tcp 1040 ------- 1 0.0 4.0 4 13
d 1.282036 5 6 tcp 1040 ------- 1 0.0 4.0 4 13
+ 1.285936 3 6 tcp 1040 ------- 1 0.0 4.0 5 14
- 1.286448 3 6 tcp 1040 ------- 1 0.0 4.0 5 14
d 1.286452 5 6 tcp 1040 ------- 1 0.0 4.0 5 14
r 1.288 2 3 cbr 1000 ------- 2 1.0 5.0 6 16
h 1.288 3 6 cbr 1000 ------- 2 1.0 5.0 6 16
+ 1.290096 3 6 tcp 1040 ------- 1 0.0 4.0 6 15
- 1.290864 3 6 tcp 1040 ------- 1 0.0 4.0 6 15
d 1.290868 5 6 tcp 1040 ------- 1 0.0 4.0 6 15
r 1.31762 6 4 tcp 1040 ------- 1 0.0 4.0 3 12
h 1.31762 4 6 ack 40 ------- 1 4.0 0.0 3 17
r 1.322036 6 4 tcp 1040 ------- 1 0.0 4.0 4 13
h 1.322036 4 6 ack 40 ------- 1 4.0 0.0 4 18
r 1.326452 6 4 tcp 1040 ------- 1 0.0 4.0 5 14
h 1.326452 4 6 ack 40 ------- 1 4.0 0.0 5 19
+ 1.328 3 6 cbr 1000 ------- 2 1.0 5.0 6 16
- 1.328 3 6 cbr 1000 ------- 2 1.0 5.0 6 16
d 1.328004 4 6 cbr 1000 ------- 2 1.0 5.0 6 16
r 1.330868 6 4 tcp 1040 ------- 1 0.0 4.0 6 15
h 1.330868 4 6 ack 40 ------- 1 4.0 0.0 6 20
+ 1.35762 4 6 ack 40 ------- 1 4.0 0.0 3 17
- 1.35762 4 6 ack 40 ------- 1 4.0 0.0 3 17
d 1.357624 5 6 ack 40 ------- 1 4.0 0.0 3 17
+ 1.362036 4 6 ack 40 ------- 1 4.0 0.0 4 18
- 1.362036 4 6 ack 40 ------- 1 4.0 0.0 4 18
d 1.36204 5 6 ack 40 ------- 1 4.0 0.0 4 18
+ 1.366452 4 6 ack 40 ------- 1 4.0 0.0 5 19
- 1.366452 4 6 ack 40 ------- 1 4.0 0.0 5 19
d 1.366456 5 6 ack 40 ------- 1 4.0 0.0 5 19
r 1.368004 6 5 cbr 1000 ------- 2 1.0 5.0 6 16
+ 1.370868 4 6 ack 40 ------- 1 4.0 0.0 6 20
- 1.370868 4 6 ack 40 ------- 1 4.0 0.0 6 20
d 1.370872 5 6 ack 40 ------- 1 4.0 0.0 6 20
r 1.397624 6 3 ack 40 ------- 1 4.0 0.0 3 17
+ 1.397624 3 2 ack 40 ------- 1 4.0 0.0 3 17
- 1.397624 3 2 ack 40 ------- 1 4.0 0.0 3 17
r 1.40204 6 3 ack 40 ------- 1 4.0 0.0 4 18
+ 1.40204 3 2 ack 40 ------- 1 4.0 0.0 4 18
- 1.40204 3 2 ack 40 ------- 1 4.0 0.0 4 18
r 1.406456 6 3 ack 40 ------- 1 4.0 0.0 5 19
+ 1.406456 3 2 ack 40 ------- 1 4.0 0.0 5 19
- 1.406456 3 2 ack 40 ------- 1 4.0 0.0 5 19
r 1.407784 3 2 ack 40 ------- 1 4.0 0.0 3 17
+ 1.407784 2 0 ack 40 ------- 1 4.0 0.0 3 17
- 1.407784 2 0 ack 40 ------- 1 4.0 0.0 3 17
r 1.410872 6 3 ack 40 ------- 1 4.0 0.0 6 20
+ 1.410872 3 2 ack 40 ------- 1 4.0 0.0 6 20
- 1.410872 3 2 ack 40 ------- 1 4.0 0.0 6 20
r 1.4122 3 2 ack 40 ------- 1 4.0 0.0 4 18
+ 1.4122 2 0 ack 40 ------- 1 4.0 0.0 4 18
- 1.4122 2 0 ack 40 ------- 1 4.0 0.0 4 18
r 1.416616 3 2 ack 40 ------- 1 4.0 0.0 5 19
+ 1.416616 2 0 ack 40 ------- 1 4.0 0.0 5 19
- 1.416616 2 0 ack 40 ------- 1 4.0 0.0 5 19
r 1.417944 2 0 ack 40 ------- 1 4.0 0.0 3 17
+ 1.417944 0 2 tcp 1040 ------- 1 0.0 4.0 7 21
- 1.417944 0 2 tcp 1040 ------- 1 0.0 4.0 7 21
+ 1.417944 0 2 tcp 1040 ------- 1 0.0 4.0 8 22
+ 1.42 1 2 cbr 1000 ------- 2 1.0 5.0 7 23
- 1.42 1 2 cbr 1000 ------- 2 1.0 5.0 7 23
r 1.421032 3 2 ack 40 ------- 1 4.0 0.0 6 20
+ 1.421032 2 0 ack 40 ------- 1 4.0 0.0 6 20
- 1.421032 2 0 ack 40 ------- 1 4.0 0.0 6 20
- 1.422104 0 2 tcp 1040 ------- 1 0.0 4.0 8 22
r 1.42236 2 0 ack 40 ------- 1 4.0 0.0 4 18
+ 1.42236 0 2 tcp 1040 ------- 1 0.0 4.0 9 24
+ 1.42236 0 2 tcp 1040 ------- 1 0.0 4.0 10 25
- 1.426264 0 2 tcp 1040 ------- 1 0.0 4.0 9 24
r 1.426776 2 0 ack 40 ------- 1 4.0 0.0 5 19
+ 1.426776 0 2 tcp 1040 ------- 1 0.0 4.0 11 26
+ 1.426776 0 2 tcp 1040 ------- 1 0.0 4.0 12 27
- 1.430424 0 2 tcp 1040 ------- 1 0.0 4.0 10 25
r 1.431192 2 0 ack 40 ------- 1 4.0 0.0 6 20
+ 1.431192 0 2 tcp 1040 ------- 1 0.0 4.0 13 28
+ 1.431192 0 2 tcp 1040 ------- 1 0.0 4.0 14 29
r 1.432104 0 2 tcp 1040 ------- 1 0.0 4.0 7 21
+ 1.432104 2 3 tcp 1040 ------- 1 0.0 4.0 7 21
- 1.432104 2 3 tcp 1040 ------- 1 0.0 4.0 7 21
r 1.434 1 2 cbr 1000 ------- 2 1.0 5.0 7 23
+ 1.434 2 3 cbr 1000 ------- 2 1.0 5.0 7 23
- 1.434584 0 2 tcp 1040 ------- 1 0.0 4.0 11 26
r 1.436264 0 2 tcp 1040 ------- 1 0.0 4.0 8 22
+ 1.436264 2 3 tcp 1040 ------- 1 0.0 4.0 8 22
- 1.436264 2 3 cbr 1000 ------- 2 1.0 5.0 7 23
- 1.438744 0 2 tcp 1040 ------- 1 0.0 4.0 12 27
- 1.440264 2 3 tcp 1040 ------- 1 0.0 4.0 8 22
r 1.440424 0 2 tcp 1040 ------- 1 0.0 4.0 9 24
+ 1.440424 2 3 tcp 1040 ------- 1 0.0 4.0 9 24
- 1.442904 0 2 tcp 1040 ------- 1 0.0 4.0 13 28
- 1.444424 2 3 tcp 1040 ------- 1 0.0 4.0 9 24
r 1.444584 0 2 tcp 1040 ------- 1 0.0 4.0 10 25
+ 1.444584 2 3 tcp 1040 ------- 1 0.0 4.0 10 25
r 1.446264 2 3 tcp 1040 ------- 1 0.0 4.0 7 21
h 1.446264 3 6 tcp 1040 ------- 1 0.0 4.0 7 21
- 1.447064 0 2 tcp 1040 ------- 1 0.0 4.0 14 29
- 1.448584 2 3 tcp 1040 ------- 1 0.0 4.0 10 25
r 1.448744 0 2 tcp 1040 ------- 1 0.0 4.0 11 26
+ 1.448744 2 3 tcp 1040 ------- 1 0.0 4.0 11 26
r 1.450264 2 3 cbr 1000 ------- 2 1.0 5.0 7 23
h 1.450264 3 6 cbr 1000 ------- 2 1.0 5.0 7 23
- 1.452744 2 3 tcp 1040 ------- 1 0.0 4.0 11 26
r 1.452904 0 2 tcp 1040 ------- 1 0.0 4.0 12 27
+ 1.452904 2 3 tcp 1040 ------- 1 0.0 4.0 12 27
r 1.454424 2 3 tcp 1040 ------- 1 0.0 4.0 8 22
h 1.454424 3 6 tcp 1040 ------- 1 0.0 4.0 8 22
- 1.456904 2 3 tcp 1040 ------- 1 0.0 4.0 12 27
r 1.457064 0 2 tcp 1040 ------- 1 0.0 4.0 13 28
+ 1.457064 2 3 tcp 1040 ------- 1 0.0 4.0 13 28
r 1.458584 2 3 tcp 1040 ------- 1 0.0 4.0 9 24
h 1.458584 3 6 tcp 1040 ------- 1 0.0 4.0 9 24
- 1.461064 2 3 tcp 1040 ------- 1 0.0 4.0 13 28
r 1.461224 0 2 tcp 1040 ------- 1 0.0 4.0 14 29
+ 1.461224 2 3 tcp 1040 ------- 1 0.0 4.0 14 29
r 1.462744 2 3 tcp 1040 ------- 1 0.0 4.0 10 25
h 1.462744 3 6 tcp 1040 ------- 1 0.0 4.0 10 25
- 1.465224 2 3 tcp 1040 ------- 1 0.0 4.0 14 29
r 1.466904 2 3 tcp 1040 ------- 1 0.0 4.0 11 26
h 1.466904 3 6 tcp 1040 ------- 1 0.0 4.0 11 26
r 1.471064 2 3 tcp 1040 ------- 1 0.0 4.0 12 27
h 1.471064 3 6 tcp 1040 ------- 1 0.0 4.0 12 27
r 1.475224 2 3 tcp 1040 ------- 1 0.0 4.0 13 28
h 1.475224 3 6 tcp 1040 ------- 1 0.0 4.0 13 28
r 1.479384 2 3 tcp 1040 ------- 1 0.0 4.0 14 29
h 1.479384 3 6 tcp 1040 ------- 1 0.0 4.0 14 29
+ 1.486264 3 6 tcp 1040 ------- 1 0.0 4.0 7 21
- 1.486264 3 6 tcp 1040 ------- 1 0.0 4.0 7 21
d 1.486268 5 6 tcp 1040 ------- 1 0.0 4.0 7 21
+ 1.490264 3 6 cbr 1000 ------- 2 1.0 5.0 7 23
- 1.49068 3 6 cbr 1000 ------- 2 1.0 5.0 7 23
d 1.490684 4 6 cbr 1000 ------- 2 1.0 5.0 7 23
+ 1.494424 3 6 tcp 1040 ------- 1 0.0 4.0 8 22
- 1.494936 3 6 tcp 1040 ------- 1 0.0 4.0 8 22
d 1.49494 5 6 tcp 1040 ------- 1 0.0 4.0 8 22
+ 1.498584 3 6 tcp 1040 ------- 1 0.0 4.0 9 24
- 1.499352 3 6 tcp 1040 ------- 1 0.0 4.0 9 24
d 1.499356 5 6 tcp 1040 ------- 1 0.0 4.0 9 24
+ 1.502744 3 6 tcp 1040 ------- 1 0.0 4.0 10 25
- 1.503768 3 6 tcp 1040 ------- 1 0.0 4.0 10 25
d 1.503772 5 6 tcp 1040 ------- 1 0.0 4.0 10 25
+ 1.506904 3 6 tcp 1040 ------- 1 0.0 4.0 11 26
- 1.508184 3 6 tcp 1040 ------- 1 0.0 4.0 11 26
d 1.508188 5 6 tcp 1040 ------- 1 0.0 4.0 11 26
+ 1.511064 3 6 tcp 1040 ------- 1 0.0 4.0 12 27
- 1.5126 3 6 tcp 1040 ------- 1 0.0 4.0 12 27
d 1.512604 5 6 tcp 1040 ------- 1 0.0 4.0 12 27
+ 1.515224 3 6 tcp 1040 ------- 1 0.0 4.0 13 28
- 1.517016 3 6 tcp 1040 ------- 1 0.0 4.0 13 28
d 1.51702 5 6 tcp 1040 ------- 1 0.0 4.0 13 28
+ 1.519384 3 6 tcp 1040 ------- 1 0.0 4.0 14 29
- 1.521432 3 6 tcp 1040 ------- 1 0.0 4.0 14 29
d 1.521436 5 6 tcp 1040 ------- 1 0.0 4.0 14 29
r 1.526268 6 4 tcp 1040 ------- 1 0.0 4.0 7 21
h 1.526268 4 6 ack 40 ------- 1 4.0 0.0 7 30
r 1.530684 6 5 cbr 1000 ------- 2 1.0 5.0 7 23
r 1.53494 6 4 tcp 1040 ------- 1 0.0 4.0 8 22
h 1.53494 4 6 ack 40 ------- 1 4.0 0.0 8 31
r 1.539356 6 4 tcp 1040 ------- 1 0.0 4.0 9 24
h 1.539356 4 6 ack 40 ------- 1 4.0 0.0 9 32
r 1.543772 6 4 tcp 1040 ------- 1 0.0 4.0 10 25
h 1.543772 4 6 ack 40 ------- 1 4.0 0.0 10 33
r 1.548188 6 4 tcp 1040 ------- 1 0.0 4.0 11 26
h 1.548188 4 6 ack 40 ------- 1 4.0 0.0 11 34
r 1.552604 6 4 tcp 1040 ------- 1 0.0 4.0 12 27
h 1.552604 4 6 ack 40 ------- 1 4.0 0.0 12 35
r 1.55702 6 4 tcp 1040 ------- 1 0.0 4.0 13 28
h 1.55702 4 6 ack 40 ------- 1 4.0 0.0 13 36
r 1.561436 6 4 tcp 1040 ------- 1 0.0 4.0 14 29
h 1.561436 4 6 ack 40 ------- 1 4.0 0.0 14 37
+ 1.566268 4 6 ack 40 ------- 1 4.0 0.0 7 30
- 1.566268 4 6 ack 40 ------- 1 4.0 0.0 7 30
d 1.566272 5 6 ack 40 ------- 1 4.0 0.0 7 30
+ 1.57494 4 6 ack 40 ------- 1 4.0 0.0 8 31
- 1.57494 4 6 ack 40 ------- 1 4.0 0.0 8 31
d 1.574944 5 6 ack 40 ------- 1 4.0 0.0 8 31
+ 1.579356 4 6 ack 40 ------- 1 4.0 0.0 9 32
- 1.579356 4 6 ack 40 ------- 1 4.0 0.0 9 32
d 1.57936 5 6 ack 40 ------- 1 4.0 0.0 9 32
+ 1.58 1 2 cbr 1000 ------- 2 1.0 5.0 8 38
- 1.58 1 2 cbr 1000 ------- 2 1.0 5.0 8 38
+ 1.583772 4 6 ack 40 ------- 1 4.0 0.0 10 33
- 1.583772 4 6 ack 40 ------- 1 4.0 0.0 10 33
d 1.583776 5 6 ack 40 ------- 1 4.0 0.0 10 33
+ 1.588188 4 6 ack 40 ------- 1 4.0 0.0 11 34
- 1.588188 4 6 ack 40 ------- 1 4.0 0.0 11 34
d 1.588192 5 6 ack 40 ------- 1 4.0 0.0 11 34
+ 1.592604 4 6 ack 40 ------- 1 4.0 0.0 12 35
- 1.592604 4 6 ack 40 ------- 1 4.0 0.0 12 35
d 1.592608 5 6 ack 40 ------- 1 4.0 0.0 12 35
r 1.594 1 2 cbr 1000 ------- 2 1.0 5.0 8 38
+ 1.594 2 3 cbr 1000 ------- 2 1.0 5.0 8 38
- 1.594 2 3 cbr 1000 ------- 2 1.0 5.0 8 38
+ 1.59702 4 6 ack 40 ------- 1 4.0 0.0 13 36
- 1.59702 4 6 ack 40 ------- 1 4.0 0.0 13 36
d 1.597024 5 6 ack 40 ------- 1 4.0 0.0 13 36
+ 1.601436 4 6 ack 40 ------- 1 4.0 0.0 14 37
- 1.601436 4 6 ack 40 ------- 1 4.0 0.0 14 37
d 1.60144 5 6 ack 40 ------- 1 4.0 0.0 14 37
r 1.606272 6 3 ack 40 ------- 1 4.0 0.0 7 30
+ 1.606272 3 2 ack 40 ------- 1 4.0 0.0 7 30
- 1.606272 3 2 ack 40 ------- 1 4.0 0.0 7 30
r 1.608 2 3 cbr 1000 ------- 2 1.0 5.0 8 38
h 1.608 3 6 cbr 1000 ------- 2 1.0 5.0 8 38
r 1.614944 6 3 ack 40 ------- 1 4.0 0.0 8 31
+ 1.614944 3 2 ack 40 ------- 1 4.0 0.0 8 31
- 1.614944 3 2 ack 40 ------- 1 4.0 0.0 8 31
r 1.616432 3 2 ack 40 ------- 1 4.0 0.0 7 30
+ 1.616432 2 0 ack 40 ------- 1 4.0 0.0 7 30
- 1.616432 2 0 ack 40 ------- 1 4.0 0.0 7 30
r 1.61936 6 3 ack 40 ------- 1 4.0 0.0 9 32
+ 1.61936 3 2 ack 40 ------- 1 4.0 0.0 9 32
- 1.61936 3 2 ack 40 ------- 1 4.0 0.0 9 32
r 1.623776 6 3 ack 40 ------- 1 4.0 0.0 10 33
+ 1.623776 3 2 ack 40 ------- 1 4.0 0.0 10 33
- 1.623776 3 2 ack 40 ------- 1 4.0 0.0 10 33
r 1.625104 3 2 ack 40 ------- 1 4.0 0.0 8 31
+ 1.625104 2 0 ack 40 ------- 1 4.0 0.0 8 31
- 1.625104 2 0 ack 40 ------- 1 4.0 0.0 8 31
r 1.626592 2 0 ack 40 ------- 1 4.0 0.0 7 30
+ 1.626592 0 2 tcp 1040 ------- 1 0.0 4.0 15 39
- 1.626592 0 2 tcp 1040 ------- 1 0.0 4.0 15 39
+ 1.626592 0 2 tcp 1040 ------- 1 0.0 4.0 16 40
r 1.628192 6 3 ack 40 ------- 1 4.0 0.0 11 34
+ 1.628192 3 2 ack 40 ------- 1 4.0 0.0 11 34
- 1.628192 3 2 ack 40 ------- 1 4.0 0.0 11 34
r 1.62952 3 2 ack 40 ------- 1 4.0 0.0 9 32
+ 1.62952 2 0 ack 40 ------- 1 4.0 0.0 9 32
- 1.62952 2 0 ack 40 ------- 1 4.0 0.0 9 32
- 1.630752 0 2 tcp 1040 ------- 1 0.0 4.0 16 40
r 1.632608 6 3 ack 40 ------- 1 4.0 0.0 12 35
+ 1.632608 3 2 ack 40 ------- 1 4.0 0.0 12 35
- 1.632608 3 2 ack 40 ------- 1 4.0 0.0 12 35
r 1.633936 3 2 ack 40 ------- 1 4.0 0.0 10 33
+ 1.633936 2 0 ack 40 ------- 1 4.0 0.0 10 33
- 1.633936 2 0 ack 40 ------- 1 4.0 0.0 10 33
r 1.635264 2 0 ack 40 ------- 1 4.0 0.0 8 31
+ 1.635264 0 2 tcp 1040 ------- 1 0.0 4.0 17 41
- 1.635264 0 2 tcp 1040 ------- 1 0.0 4.0 17 41
+ 1.635264 0 2 tcp 1040 ------- 1 0.0 4.0 18 42
r 1.637024 6 3 ack 40 ------- 1 4.0 0.0 13 36
+ 1.637024 3 2 ack 40 ------- 1 4.0 0.0 13 36
- 1.637024 3 2 ack 40 ------- 1 4.0 0.0 13 36
r 1.638352 3 2 ack 40 ------- 1 4.0 0.0 11 34
+ 1.638352 2 0 ack 40 ------- 1 4.0 0.0 11 34
- 1.638352 2 0 ack 40 ------- 1 4.0 0.0 11 34
- 1.639424 0 2 tcp 1040 ------- 1 0.0 4.0 18 42
r 1.63968 2 0 ack 40 ------- 1 4.0 0.0 9 32
+ 1.63968 0 2 tcp 1040 ------- 1 0.0 4.0 19 43
+ 1.63968 0 2 tcp 1040 ------- 1 0.0 4.0 20 44
r 1.640752 0 2 tcp 1040 ------- 1 0.0 4.0 15 39
+ 1.640752 2 3 tcp 1040 ------- 1 0.0 4.0 15 39
- 1.640752 2 3 tcp 1040 ------- 1 0.0 4.0 15 39
r 1.64144 6 3 ack 40 ------- 1 4.0 0.0 14 37
+ 1.64144 3 2 ack 40 ------- 1 4.0 0.0 14 37
- 1.64144 3 2 ack 40 ------- 1 4.0 0.0 14 37
r 1.642768 3 2 ack 40 ------- 1 4.0 0.0 12 35
+ 1.642768 2 0 ack 40 ------- 1 4.0 0.0 12 35
- 1.642768 2 0 ack 40 ------- 1 4.0 0.0 12 35
- 1.643584 0 2 tcp 1040 ------- 1 0.0 4.0 19 43
r 1.644096 2 0 ack 40 ------- 1 4.0 0.0 10 33
+ 1.644096 0 2 tcp 1040 ------- 1 0.0 4.0 21 45
+ 1.644096 0 2 tcp 1040 ------- 1 0.0 4.0 22 46
r 1.644912 0 2 tcp 1040 ------- 1 0.0 4.0 16 40
+ 1.644912 2 3 tcp 1040 ------- 1 0.0 4.0 16 40
- 1.644912 2 3 tcp 1040 ------- 1 0.0 4.0 16 40
r 1.647184 3 2 ack 40 ------- 1 4.0 0.0 13 36
+ 1.647184 2 0 ack 40 ------- 1 4.0 0.0 13 36
- 1.647184 2 0 ack 40 ------- 1 4.0 0.0 13 36
- 1.647744 0 2 tcp 1040 ------- 1 0.0 4.0 20 44
+ 1.648 3 6 cbr 1000 ------- 2 1.0 5.0 8 38
- 1.648 3 6 cbr 1000 ------- 2 1.0 5.0 8 38
d 1.648004 4 6 cbr 1000 ------- 2 1.0 5.0 8 38
r 1.648512 2 0 ack 40 ------- 1 4.0 0.0 11 34
+ 1.648512 0 2 tcp 1040 ------- 1 0.0 4.0 23 47
+ 1.648512 0 2 tcp 1040 ------- 1 0.0 4.0 24 48
r 1.649424 0 2 tcp 1040 ------- 1 0.0 4.0 17 41
+ 1.649424 2 3 tcp 1040 ------- 1 0.0 4.0 17 41
- 1.649424 2 3 tcp 1040 ------- 1 0.0 4.0 17 41
r 1.6516 3 2 ack 40 ------- 1 4.0 0.0 14 37
+ 1.6516 2 0 ack 40 ------- 1 4.0 0.0 14 37
- 1.6516 2 0 ack 40 ------- 1 4.0 0.0 14 37
- 1.651904 0 2 tcp 1040 ------- 1 0.0 4.0 21 45
r 1.652928 2 0 ack 40 ------- 1 4.0 0.0 12 35
+ 1.652928 0 2 tcp 1040 ------- 1 0.0 4.0 25 49
+ 1.652928 0 2 tcp 1040 ------- 1 0.0 4.0 26 50
r 1.653584 0 2 tcp 1040 ------- 1 0.0 4.0 18 42
+ 1.653584 2 3 tcp 1040 ------- 1 0.0 4.0 18 42
- 1.653584 2 3 tcp 1040 ------- 1 0.0 4.0 18 42
r 1.654912 2 3 tcp 1040 ------- 1 0.0 4.0 15 39
h 1.654912 3 6 tcp 1040 ------- 1 0.0 4.0 15 39
- 1.656064 0 2 tcp 1040 ------- 1 0.0 4.0 22 46
r 1.657344 2 0 ack 40 ------- 1 4.0 0.0 13 36
+ 1.657344 0 2 tcp 1040 ------- 1 0.0 4.0 27 51
+ 1.657344 0 2 tcp 1040 ------- 1 0.0 4.0 28 52
r 1.657744 0 2 tcp 1040 ------- 1 0.0 4.0 19 43
+ 1.657744 2 3 tcp 1040 ------- 1 0.0 4.0 19 43
- 1.657744 2 3 tcp 1040 ------- 1 0.0 4.0 19 43
r 1.659072 2 3 tcp 1040 ------- 1 0.0 4.0 16 40
h 1.659072 3 6 tcp 1040 ------- 1 0.0 4.0 16 40
- 1.660224 0 2 tcp 1040 ------- 1 0.0 4.0 23 47
r 1.66176 2 0 ack 40 ------- 1 4.0 0.0 14 37
+ 1.66176 0 2 tcp 1040 ------- 1 0.0 4.0 29 53
+ 1.66176 0 2 tcp 1040 ------- 1 0.0 4.0 30 54
r 1.661904 0 2 tcp 1040 ------- 1 0.0 4.0 20 44
+ 1.661904 2 3 tcp 1040 ------- 1 0.0 4.0 20 44
- 1.661904 2 3 tcp 1040 ------- 1 0.0 4.0 20 44
r 1.663584 2 3 tcp 1040 ------- 1 0.0 4.0 17 41
h 1.663584 3 6 tcp 1040 ------- 1 0.0 4.0 17 41
- 1.664384 0 2 tcp 1040 ------- 1 0.0 4.0 24 48
r 1.666064 0 2 tcp 1040 ------- 1 0.0 4.0 21 45
+ 1.666064 2 3 tcp 1040 ------- 1 0.0 4.0 21 45
- 1.666064 2 3 tcp 1040 ------- 1 0.0 4.0 21 45
r 1.667744 2 3 tcp 1040 ------- 1 0.0 4.0 18 42
h 1.667744 3 6 tcp 1040 ------- 1 0.0 4.0 18 42
- 1.668544 0 2 tcp 1040 ------- 1 0.0 4.0 25 49
r 1.670224 0 2 tcp 1040 ------- 1 0.0 4.0 22 46
+ 1.670224 2 3 tcp 1040 ------- 1 0.0 4.0 22 46
- 1.670224 2 3 tcp 1040 ------- 1 0.0 4.0 22 46
r 1.671904 2 3 tcp 1040 ------- 1 0.0 4.0 19 43
h 1.671904 3 6 tcp 1040 ------- 1 0.0 4.0 19 43
- 1.672704 0 2 tcp 1040 ------- 1 0.0 4.0 26 50
r 1.674384 0 2 tcp 1040 ------- 1 0.0 4.0 23 47
+ 1.674384 2 3 tcp 1040 ------- 1 0.0 4.0 23 47
- 1.674384 2 3 tcp 1040 ------- 1 0.0 4.0 23 47
r 1.676064 2 3 tcp 1040 ------- 1 0.0 4.0 20 44
h 1.676064 3 6 tcp 1040 ------- 1 0.0 4.0 20 44
- 1.676864 0 2 tcp 1040 ------- 1 0.0 4.0 27 51
r 1.678544 0 2 tcp 1040 ------- 1 0.0 4.0 24 48
+ 1.678544 2 3 tcp 1040 ------- 1 0.0 4.0 24 48
- 1.678544 2 3 tcp 1040 ------- 1 0.0 4.0 24 48
r 1.680224 2 3 tcp 1040 ------- 1 0.0 4.0 21 45
h 1.680224 3 6 tcp 1040 ------- 1 0.0 4.0 21 45
- 1.681024 0 2 tcp 1040 ------- 1 0.0 4.0 28 52
r 1.682704 0 2 tcp 1040 ------- 1 0.0 4.0 25 49
+ 1.682704 2 3 tcp 1040 ------- 1 0.0 4.0 25 49
- 1.682704 2 3 tcp 1040 ------- 1 0.0 4.0 25 49
r 1.684384 2 3 tcp 1040 ------- 1 0.0 4.0 22 46
h 1.684384 3 6 tcp 1040 ------- 1 0.0 4.0 22 46
- 1.685184 0 2 tcp 1040 ------- 1 0.0 4.0 29 53
r 1.686864 0 2 tcp 1040 ------- 1 0.0 4.0 26 50
+ 1.686864 2 3 tcp 1040 ------- 1 0.0 4.0 26 50
- 1.686864 2 3 tcp 1040 ------- 1 0.0 4.0 26 50
r 1.688004 6 5 cbr 1000 ------- 2 1.0 5.0 8 38
r 1.688544 2 3 tcp 1040 ------- 1 0.0 4.0 23 47
h 1.688544 3 6 tcp 1040 ------- 1 0.0 4.0 23 47
- 1.689344 0 2 tcp 1040 ------- 1 0.0 4.0 30 54
r 1.691024 0 2 tcp 1040 ------- 1 0.0 4.0 27 51
+ 1.691024 2 3 tcp 1040 ------- 1 0.0 4.0 27 51
- 1.691024 2 3 tcp 1040 ------- 1 0.0 4.0 27 51
r 1.692704 2 3 tcp 1040 ------- 1 0.0 4.0 24 48
h 1.692704 3 6 tcp 1040 ------- 1 0.0 4.0 24 48
+ 1.694912 3 6 tcp 1040 ------- 1 0.0 4.0 15 39
- 1.694912 3 6 tcp 1040 ------- 1 0.0 4.0 15 39
d 1.694916 5 6 tcp 1040 ------- 1 0.0 4.0 15 39
r 1.695184 0 2 tcp 1040 ------- 1 0.0 4.0 28 52
+ 1.695184 2 3 tcp 1040 ------- 1 0.0 4.0 28 52
- 1.695184 2 3 tcp 1040 ------- 1 0.0 4.0 28 52
r 1.696864 2 3 tcp 1040 ------- 1 0.0 4.0 25 49
h 1.696864 3 6 tcp 1040 ------- 1 0.0 4.0 25 49
+ 1.699072 3 6 tcp 1040 ------- 1 0.0 4.0 16 40
- 1.699328 3 6 tcp 1040 ------- 1 0.0 4.0 16 40
d 1.699332 5 6 tcp 1040 ------- 1 0.0 4.0 16 40
r 1.699344 0 2 tcp 1040 ------- 1 0.0 4.0 29 53
+ 1.699344 2 3 tcp 1040 ------- 1 0.0 4.0 29 53
- 1.699344 2 3 tcp 1040 ------- 1 0.0 4.0 29 53
r 1.701024 2 3 tcp 1040 ------- 1 0.0 4.0 26 50
h 1.701024 3 6 tcp 1040 ------- 1 0.0 4.0 26 50
r 1.703504 0 2 tcp 1040 ------- 1 0.0 4.0 30 54
+ 1.703504 2 3 tcp 1040 ------- 1 0.0 4.0 30 54
- 1.703504 2 3 tcp 1040 ------- 1 0.0 4.0 30 54
+ 1.703584 3 6 tcp 1040 ------- 1 0.0 4.0 17 41
- 1.703744 3 6 tcp 1040 ------- 1 0.0 4.0 17 41
d 1.703748 5 6 tcp 1040 ------- 1 0.0 4.0 17 41
r 1.705184 2 3 tcp 1040 ------- 1 0.0 4.0 27 51
h 1.705184 3 6 tcp 1040 ------- 1 0.0 4.0 27 51
+ 1.707744 3 6 tcp 1040 ------- 1 0.0 4.0 18 42
- 1.70816 3 6 tcp 1040 ------- 1 0.0 4.0 18 42
d 1.708164 5 6 tcp 1040 ------- 1 0.0 4.0 18 42
r 1.709344 2 3 tcp 1040 ------- 1 0.0 4.0 28 52
h 1.709344 3 6 tcp 1040 ------- 1 0.0 4.0 28 52
+ 1.711904 3 6 tcp 1040 ------- 1 0.0 4.0 19 43
- 1.712576 3 6 tcp 1040 ------- 1 0.0 4.0 19 43
d 1.71258 5 6 tcp 1040 ------- 1 0.0 4.0 19 43
r 1.713504 2 3 tcp 1040 ------- 1 0.0 4.0 29 53
h 1.713504 3 6 tcp 1040 ------- 1 0.0 4.0 29 53
+ 1.716064 3 6 tcp 1040 ------- 1 0.0 4.0 20 44
- 1.716992 3 6 tcp 1040 ------- 1 0.0 4.0 20 44
d 1.716996 5 6 tcp 1040 ------- 1 0.0 4.0 20 44
r 1.717664 2 3 tcp 1040 ------- 1 0.0 4.0 30 54
h 1.717664 3 6 tcp 1040 ------- 1 0.0 4.0 30 54
+ 1.720224 3 6 tcp 1040 ------- 1 0.0 4.0 21 45
- 1.721408 3 6 tcp 1040 ------- 1 0.0 4.0 21 45
d 1.721412 5 6 tcp 1040 ------- 1 0.0 4.0 21 45
+ 1.724384 3 6 tcp 1040 ------- 1 0.0 4.0 22 46
- 1.725824 3 6 tcp 1040 ------- 1 0.0 4.0 22 46
d 1.725828 5 6 tcp 1040 ------- 1 0.0 4.0 22 46
+ 1.728544 3 6 tcp 1040 ------- 1 0.0 4.0 23 47
- 1.73024 3 6 tcp 1040 ------- 1 0.0 4.0 23 47
d 1.730244 5 6 tcp 1040 ------- 1 0.0 4.0 23 47
+ 1.732704 3 6 tcp 1040 ------- 1 0.0 4.0 24 48
- 1.734656 3 6 tcp 1040 ------- 1 0.0 4.0 24 48
d 1.73466 5 6 tcp 1040 ------- 1 0.0 4.0 24 48
r 1.734916 6 4 tcp 1040 ------- 1 0.0 4.0 15 39
h 1.734916 4 6 ack 40 ------- 1 4.0 0.0 15 55
+ 1.736864 3 6 tcp 1040 ------- 1 0.0 4.0 25 49
- 1.739072 3 6 tcp 1040 ------- 1 0.0 4.0 25 49
d 1.739076 5 6 tcp 1040 ------- 1 0.0 4.0 25 49
r 1.739332 6 4 tcp 1040 ------- 1 0.0 4.0 16 40
h 1.739332 4 6 ack 40 ------- 1 4.0 0.0 16 56
+ 1.74 1 2 cbr 1000 ------- 2 1.0 5.0 9 57
- 1.74 1 2 cbr 1000 ------- 2 1.0 5.0 9 57
+ 1.741024 3 6 tcp 1040 ------- 1 0.0 4.0 26 50
- 1.743488 3 6 tcp 1040 ------- 1 0.0 4.0 26 50
d 1.743492 5 6 tcp 1040 ------- 1 0.0 4.0 26 50
r 1.743748 6 4 tcp 1040 ------- 1 0.0 4.0 17 41
h 1.743748 4 6 ack 40 ------- 1 4.0 0.0 17 58
+ 1.745184 3 6 tcp 1040 ------- 1 0.0 4.0 27 51
- 1.747904 3 6 tcp 1040 ------- 1 0.0 4.0 27 51
d 1.747908 5 6 tcp 1040 ------- 1 0.0 4.0 27 51
r 1.748164 6 4 tcp 1040 ------- 1 0.0 4.0 18 42
h 1.748164 4 6 ack 40 ------- 1 4.0 0.0 18 59
+ 1.749344 3 6 tcp 1040 ------- 1 0.0 4.0 28 52
- 1.75232 3 6 tcp 1040 ------- 1 0.0 4.0 28 52
d 1.752324 5 6 tcp 1040 ------- 1 0.0 4.0 28 52
r 1.75258 6 4 tcp 1040 ------- 1 0.0 4.0 19 43
h 1.75258 4 6 ack 40 ------- 1 4.0 0.0 19 60
+ 1.753504 3 6 tcp 1040 ------- 1 0.0 4.0 29 53
r 1.754 1 2 cbr 1000 ------- 2 1.0 5.0 9 57
+ 1.754 2 3 cbr 1000 ------- 2 1.0 5.0 9 57
- 1.754 2 3 cbr 1000 ------- 2 1.0 5.0 9 57
- 1.756736 3 6 tcp 1040 ------- 1 0.0 4.0 29 53
d 1.75674 5 6 tcp 1040 ------- 1 0.0 4.0 29 53
r 1.756996 6 4 tcp 1040 ------- 1 0.0 4.0 20 44
h 1.756996 4 6 ack 40 ------- 1 4.0 0.0 20 61
+ 1.757664 3 6 tcp 1040 ------- 1 0.0 4.0 30 54
- 1.761152 3 6 tcp 1040 ------- 1 0.0 4.0 30 54
d 1.761156 5 6 tcp 1040 ------- 1 0.0 4.0 30 54
r 1.761412 6 4 tcp 1040 ------- 1 0.0 4.0 21 45
h 1.761412 4 6 ack 40 ------- 1 4.0 0.0 21 62
r 1.765828 6 4 tcp 1040 ------- 1 0.0 4.0 22 46
h 1.765828 4 6 ack 40 ------- 1 4.0 0.0 22 63
r 1.768 2 3 cbr 1000 ------- 2 1.0 5.0 9 57
h 1.768 3 6 cbr 1000 ------- 2 1.0 5.0 9 57
r 1.770244 6 4 tcp 1040 ------- 1 0.0 4.0 23 47
h 1.770244 4 6 ack 40 ------- 1 4.0 0.0 23 64
r 1.77466 6 4 tcp 1040 ------- 1 0.0 4.0 24 48
h 1.77466 4 6 ack 40 ------- 1 4.0 0.0 24 65
+ 1.774916 4 6 ack 40 ------- 1 4.0 0.0 15 55
- 1.774916 4 6 ack 40 ------- 1 4.0 0.0 15 55
d 1.77492 5 6 ack 40 ------- 1 4.0 0.0 15 55
r 1.779076 6 4 tcp 1040 ------- 1 0.0 4.0 25 49
h 1.779076 4 6 ack 40 ------- 1 4.0 0.0 25 66
+ 1.779332 4 6 ack 40 ------- 1 4.0 0.0 16 56
- 1.779332 4 6 ack 40 ------- 1 4.0 0.0 16 56
d 1.779336 5 6 ack 40 ------- 1 4.0 0.0 16 56
r 1.783492 6 4 tcp 1040 ------- 1 0.0 4.0 26 50
h 1.783492 4 6 ack 40 ------- 1 4.0 0.0 26 67
+ 1.783748 4 6 ack 40 ------- 1 4.0 0.0 17 58
- 1.783748 4 6 ack 40 ------- 1 4.0 0.0 17 58
d 1.783752 5 6 ack 40 ------- 1 4.0 0.0 17 58
r 1.787908 6 4 tcp 1040 ------- 1 0.0 4.0 27 51
h 1.787908 4 6 ack 40 ------- 1 4.0 0.0 27 68
+ 1.788164 4 6 ack 40 ------- 1 4.0 0.0 18 59
- 1.788164 4 6 ack 40 ------- 1 4.0 0.0 18 59
d 1.788168 5 6 ack 40 ------- 1 4.0 0.0 18 59
r 1.792324 6 4 tcp 1040 ------- 1 0.0 4.0 28 52
h 1.792324 4 6 ack 40 ------- 1 4.0 0.0 28 69
+ 1.79258 4 6 ack 40 ------- 1 4.0 0.0 19 60
- 1.79258 4 6 ack 40 ------- 1 4.0 0.0 19 60
d 1.792584 5 6 ack 40 ------- 1 4.0 0.0 19 60
r 1.79674 6 4 tcp 1040 ------- 1 0.0 4.0 29 53
h 1.79674 4 6 ack 40 ------- 1 4.0 0.0 29 70
+ 1.796996 4 6 ack 40 ------- 1 4.0 0.0 20 61
- 1.796996 4 6 ack 40 ------- 1 4.0 0.0 20 61
d 1.797 5 6 ack 40 ------- 1 4.0 0.0 20 61
r 1.801156 6 4 tcp 1040 ------- 1 0.0 4.0 30 54
h 1.801156 4 6 ack 40 ------- 1 4.0 0.0 30 71
+ 1.801412 4 6 ack 40 ------- 1 4.0 0.0 21 62
- 1.801412 4 6 ack 40 ------- 1 4.0 0.0 21 62
d 1.801416 5 6 ack 40 ------- 1 4.0 0.0 21 62
+ 1.805828 4 6 ack 40 ------- 1 4.0 0.0 22 63